
                                 *****************
                                 * O   R   C   A *
                                 *****************

           --- An Ab Initio, DFT and Semiempirical electronic structure package ---

                  #######################################################
                  #                        -***-                        #
                  #  Department of molecular theory and spectroscopy    #
                  #              Directorship: Frank Neese              #
                  # Max Planck Institute for Chemical Energy Conversion #
                  #                  D-45470 Muelheim/Ruhr              #
                  #                       Germany                       #
                  #                                                     #
                  #                  All rights reserved                #
                  #                        -***-                        #
                  #######################################################


                         Program Version 3.0.1 -  RELEASE  -


 With contributions from (in alphabetic order):
   Ute Becker             : Parallelization
   Dmytro Bykov           : SCF Hessian
   Dmitry Ganyushin       : Spin-Orbit,Spin-Spin,Magnetic field MRCI
   Andreas Hansen         : Spin unrestricted coupled pair/coupled cluster methods
   Dimitrios Liakos       : Extrapolation schemes; parallel MDCI
   Robert Izsak           : Overlap fitted RIJCOSX, COSX-SCS-MP3
   Christian Kollmar      : KDIIS, OOCD, Brueckner-CCSD(T), CCSD density
   Simone Kossmann        : Meta GGA functionals, TD-DFT gradient, OOMP2, MP2 Hessian
   Taras Petrenko         : DFT Hessian,TD-DFT gradient, ASA and ECA modules, normal mode analysis, Resonance Raman, ABS, FL, XAS/XES, NRVS
   Christoph Reimann      : Effective Core Potentials
   Michael Roemelt        : Restricted open shell CIS
   Christoph Riplinger    : Improved optimizer, TS searches, QM/MM, DLPNO-CCSD
   Barbara Sandhoefer     : DKH picture change effects
   Igor Schapiro          : Molecular dynamics
   Kantharuban Sivalingam : CASSCF convergence, NEVPT2
   Boris Wezisla          : Elementary symmetry handling
   Frank Wennmohs         : Technical directorship


 We gratefully acknowledge several colleagues who have allowed us to
 interface, adapt or use parts of their codes:
   Stefan Grimme, W. Hujo, H. Kruse, T. Risthaus : VdW corrections, initial TS optimization,
                                                   DFT functionals, gCP
   Ed Valeev                                     : LibInt (2-el integral package), F12 methods
   Garnet Chan, S. Sharma, R. Olivares           : DMRG
   Ulf Ekstrom                                   : XCFun DFT Library
   Mihaly Kallay                                 : mrcc  (arbitrary order and MRCC methods)
   Andreas Klamt, Michael Diedenhofen            : otool_cosmo (COSMO solvation model)
   Frank Weinhold                                : gennbo (NPA and NBO analysis)


 Your calculation uses the libint2 library for the computation of 2-el integrals
 For citations please refer to: http://libint.valeyev.net

 This ORCA versions uses:
   CBLAS   interface :  Fast vector & matrix operations
   LAPACKE interface :  Fast linear algebra routines
   SCALAPACK package :  Parallel linear algebra routines


Your calculation utilizes the basis: 6-31G
Cite in your paper:
H - He: W.J. Hehre, R. Ditchfield and J.A. Pople, J. Chem. Phys. 56,
Li - Ne: 2257 (1972).  Note: Li and B come from J.D. Dill and J.A.
         Pople, J. Chem. Phys. 62, 2921 (1975).
Na - Ar: M.M. Francl, W.J. Pietro, W.J. Hehre, J.S. Binkley, M.S. Gordon,
         D.J. DeFrees and J.A. Pople, J. Chem. Phys. 77, 3654 (1982)
K  - Zn: V. Rassolov, J.A. Pople, M. Ratner and T.L. Windus, J. Chem. Phys.
         (accepted, 1998)
Note: He and Ne are unpublished basis sets taken from the Gaussian program

================================================================================
                                        WARNINGS
                       Please study these warnings very carefully!
================================================================================
Now building the actual basis set


INFO   : the flag for use of LIBINT has been found!

================================================================================
                                       INPUT FILE
================================================================================
NAME = pd_cc_ts_0001.inp
|  1> #orca block 
|  2> 
|  3> 
|  4> ! SP B3LYP 6-31G(d) 
|  5> 
|  6> * xyz 0 1
|  7> H  -2.92665662  -3.20002564  -0.0   
|  8> H  -2.18974503  -3.26756309  0.0   
|  9> H  -2.7382532  -2.24052954  -0.25617463   
| 10> H  -2.00264154  -2.31274401  -0.22067022   
| 11> 
| 12> *
| 13> 
| 14> 
| 15>                          ****END OF INPUT****
================================================================================

                       ****************************
                       * Single Point Calculation *
                       ****************************

---------------------------------
CARTESIAN COORDINATES (ANGSTROEM)
---------------------------------
  H     -2.926657   -3.200026   -0.000000
  H     -2.189745   -3.267563    0.000000
  H     -2.738253   -2.240530   -0.256175
  H     -2.002642   -2.312744   -0.220670

----------------------------
CARTESIAN COORDINATES (A.U.)
----------------------------
  NO LB      ZA    FRAG    MASS        X           Y           Z
   0 H     1.0000    0     1.008         -5.530579499827638         -6.047172081126079         -0.000000000000000
   1 H     1.0000    0     1.008         -4.138018409815175         -6.174799365409479          0.000000000000000
   2 H     1.0000    0     1.008         -5.174548633333496         -4.233987225560560         -0.484099893158607
   3 H     1.0000    0     1.008         -3.784444055014302         -4.370452796766832         -0.417006281712152

--------------------------------
INTERNAL COORDINATES (ANGSTROEM)
--------------------------------
 H      0   0   0   0.000000     0.000     0.000
 H      1   0   0   0.740000     0.000     0.000
 H      1   2   0   1.010819    84.320     0.000
 H      3   1   2   0.740000    94.617   357.427

---------------------------
INTERNAL COORDINATES (A.U.)
---------------------------
 H      0   0   0   0.000000     0.000     0.000
 H      1   0   0   1.398397     0.000     0.000
 H      1   2   0   1.910170    84.320     0.000
 H      3   1   2   1.398397    94.617   357.427

---------------------
BASIS SET INFORMATION
---------------------
There are 1 groups of distinct atoms

 Group   1 Type H   : 4s contracted to 2s pattern {31}

Atom   0H    basis set group =>   1
Atom   1H    basis set group =>   1
Atom   2H    basis set group =>   1
Atom   3H    basis set group =>   1
------------------------------------------------------------------------------
                           ORCA GTO INTEGRAL CALCULATION
------------------------------------------------------------------------------

                         BASIS SET STATISTICS AND STARTUP INFO

 # of primitive gaussian shells          ...   16
 # of primitive gaussian functions       ...   16
 # of contracted shell                   ...    8
 # of contracted basis functions         ...    8
 Highest angular momentum                ...    0
 Maximum contraction depth               ...    3
 Integral package used                   ... LIBINT
 Integral threshhold            Thresh   ...  1.000e-10
 Primitive cut-off              TCut     ...  1.000e-11


                              INTEGRAL EVALUATION

 One electron integrals                  ... done
 Pre-screening matrix                    ... done
 Shell pair data                         ... done (   0.000 sec)

-------------------------------------------------------------------------------
                                 ORCA SCF
-------------------------------------------------------------------------------

------------
SCF SETTINGS
------------
Hamiltonian:
 Density Functional     Method          .... DFT(GTOs)
 Exchange Functional    Exchange        .... B88
   X-Alpha parameter    XAlpha          ....  0.666667
   Becke's b parameter  XBeta           ....  0.004200
 Correlation Functional Correlation     .... LYP
 LDA part of GGA corr.  LDAOpt          .... VWN-5
 Gradients option       PostSCFGGA      .... off
 Hybrid DFT is turned on
   Fraction HF Exchange ScalHFX         ....  0.200000
   Scaling of DF-GGA-X  ScalDFX         ....  0.720000
   Scaling of DF-GGA-C  ScalDFC         ....  0.810000
   Scaling of DF-LDA-C  ScalLDAC        ....  1.000000
   Perturbative correction              ....  0.000000
   NL short-range parameter             ....  4.800000


General Settings:
 Integral files         IntName         .... pd_cc_ts_0001
 Hartree-Fock type      HFTyp           .... RHF
 Total Charge           Charge          ....    0
 Multiplicity           Mult            ....    1
 Number of Electrons    NEL             ....    4
 Basis Dimension        Dim             ....    8
 Nuclear Repulsion      ENuc            ....      3.3350876928 Eh

Convergence Acceleration:
 DIIS                   CNVDIIS         .... on
   Start iteration      DIISMaxIt       ....    12
   Startup error        DIISStart       ....  0.200000
   # of expansion vecs  DIISMaxEq       ....     5
   Bias factor          DIISBfac        ....   1.050
   Max. coefficient     DIISMaxC        ....  10.000
 Newton-Raphson         CNVNR           .... off
 SOSCF                  CNVSOSCF        .... on
   Start iteration      SOSCFMaxIt      ....   150
   Startup grad/error   SOSCFStart      ....  0.003300
 Level Shifting         CNVShift        .... on
   Level shift para.    LevelShift      ....    0.2500
   Turn off err/grad.   ShiftErr        ....    0.0010
 Zerner damping         CNVZerner       .... off
 Static damping         CNVDamp         .... on
   Fraction old density DampFac         ....    0.7000
   Max. Damping (<1)    DampMax         ....    0.9800
   Min. Damping (>=0)   DampMin         ....    0.0000
   Turn off err/grad.   DampErr         ....    0.1000
 Fernandez-Rico         CNVRico         .... off

SCF Procedure:
 Maximum # iterations   MaxIter         ....   125
 SCF integral mode      SCFMode         .... Direct
   Integral package                     .... LIBINT
 Reset frequeny         DirectResetFreq ....    20
 Integral Threshold     Thresh          ....  1.000e-10 Eh
 Primitive CutOff       TCut            ....  1.000e-11 Eh

Convergence Tolerance:
 Convergence Check Mode ConvCheckMode   .... Total+1el-Energy
 Energy Change          TolE            ....  1.000e-06 Eh
 1-El. energy change                    ....  1.000e-03 Eh
 Orbital Gradient       TolG            ....  5.000e-05
 Orbital Rotation angle TolX            ....  5.000e-05
 DIIS Error             TolErr          ....  1.000e-06


Diagonalization of the overlap matrix:
Smallest eigenvalue                        ... 2.889e-02
Time for diagonalization                   ...    0.000 sec
Threshold for overlap eigenvalues          ... 1.000e-08
Number of eigenvalues below threshold      ... 0
Time for construction of square roots      ...    0.000 sec
Total time needed                          ...    0.001 sec

-------------------
DFT GRID GENERATION
-------------------

General Integration Accuracy     IntAcc      ...  4.340
Radial Grid Type                 RadialGrid  ... Gauss-Chebyshev
Angular Grid (max. acc.)         AngularGrid ... Lebedev-110
Angular grid pruning method      GridPruning ... 3 (G Style)
Weight generation scheme         WeightScheme... Becke
Basis function cutoff            BFCut       ...    1.0000e-10
Integration weight cutoff        WCut        ...    1.0000e-14
Grids for H and He will be reduced by one unit

# of grid points (after initial pruning)     ...   3176 (   0.0 sec)
# of grid points (after weights+screening)   ...   3110 (   0.0 sec)
nearest neighbour list constructed           ...    0.0 sec
Grid point re-assignment to atoms done       ...    0.0 sec
Grid point division into batches done        ...    0.0 sec
Reduced shell lists constructed in    0.0 sec

Total number of grid points                  ...     3110
Total number of batches                      ...       52
Average number of points per batch           ...       59
Average number of grid points per atom       ...      778
Average number of shells per batch           ...     7.85 (98.11%)
Average number of basis functions per batch  ...     7.85 (98.11%)
Average number of large shells per batch     ...     7.68 (97.84%)
Average number of large basis fcns per batch ...     7.68 (97.84%)
Maximum spatial batch extension              ...  14.63, 12.73, 21.59 au
Average spatial batch extension              ...   4.26,  4.43,  4.89 au

Time for grid setup =    0.019 sec

------------------------------
INITIAL GUESS: MODEL POTENTIAL
------------------------------
Loading Hartree-Fock densities                     ... done
Calculating cut-offs                               ... done
Setting up the integral package                    ... done
Initializing the effective Hamiltonian             ... done
Starting the Coulomb interaction                   ... done (   0.0 sec)
Reading the grid                                   ... done
Mapping shells                                     ... done
Starting the XC term evaluation                    ... done (   0.0 sec)
  promolecular density results
     # of electrons  =      4.005777550
     EX              =     -1.208713474
     EC              =     -0.087269986
     EX+EC           =     -1.295983460
Transforming the Hamiltonian                       ... done (   0.0 sec)
Diagonalizing the Hamiltonian                      ... done (   0.0 sec)
Back transforming the eigenvectors                 ... done (   0.0 sec)
Now organizing SCF variables                       ... done
                      ------------------
                      INITIAL GUESS DONE (   0.2 sec)
                      ------------------
--------------
SCF ITERATIONS
--------------
ITER       Energy         Delta-E        Max-DP      RMS-DP      [F,P]     Damp
               ***  Starting incremental Fock matrix formation  ***
  0     -2.0982520034   0.000000000000 0.02060675  0.00775823  0.0494635 0.7000
  1     -2.1005798658  -0.002327862388 0.01716992  0.00669928  0.0344988 0.7000
                               ***Turning on DIIS***
  2     -2.1020862730  -0.001506407202 0.03880000  0.01519843  0.0219836 0.0000
  3     -2.1049448838  -0.002858610852 0.00789961  0.00259555  0.0060938 0.0000
                      *** Initiating the SOSCF procedure ***
                           *** Shutting down DIIS ***
                      *** Re-Reading the Fockian *** 
                      *** Removing any level shift *** 
ITER      Energy       Delta-E        Grad      Rot      Max-DP    RMS-DP
  4     -2.10504332  -0.0000984358  0.001056  0.001056  0.001942  0.000583
               *** Restarting incremental Fock matrix formation ***
  5     -2.10504753  -0.0000042136  0.000261  0.000306  0.000919  0.000229
                 **** Energy Check signals convergence ****
              ***Rediagonalizing the Fockian in SOSCF/NRSCF***

               *****************************************************
               *                     SUCCESS                       *
               *           SCF CONVERGED AFTER   6 CYCLES          *
               *****************************************************

Setting up the final grid:

General Integration Accuracy     IntAcc      ...  4.670
Radial Grid Type                 RadialGrid  ... Gauss-Chebyshev
Angular Grid (max. acc.)         AngularGrid ... Lebedev-302
Angular grid pruning method      GridPruning ... 3 (G Style)
Weight generation scheme         WeightScheme... Becke
Basis function cutoff            BFCut       ...    1.0000e-10
Integration weight cutoff        WCut        ...    1.0000e-14
Grids for H and He will be reduced by one unit

# of grid points (after initial pruning)     ...  13576 (   0.0 sec)
# of grid points (after weights+screening)   ...  13308 (   0.0 sec)
nearest neighbour list constructed           ...    0.0 sec
Grid point re-assignment to atoms done       ...    0.0 sec
Grid point division into batches done        ...    0.1 sec
Reduced shell lists constructed in    0.1 sec

Total number of grid points                  ...    13308
Total number of batches                      ...      210
Average number of points per batch           ...       63
Average number of grid points per atom       ...     3327
Average number of shells per batch           ...     7.39 (92.42%)
Average number of basis functions per batch  ...     7.39 (92.42%)
Average number of large shells per batch     ...     7.13 (96.41%)
Average number of large basis fcns per batch ...     7.13 (96.41%)
Maximum spatial batch extension              ...  15.63, 13.48, 16.85 au
Average spatial batch extension              ...   2.93,  2.94,  3.24 au

Final grid set up in    0.1 sec
Final integration                            ... done (   0.0 sec)
Change in XC energy                          ...     0.000025803
Integrated number of electrons               ...     3.999955490
Previous integrated no of electrons          ...     4.001734138

----------------
TOTAL SCF ENERGY
----------------

Total Energy       :           -2.10502192 Eh             -57.28056 eV

Components:
Nuclear Repulsion  :            3.33508769 Eh              90.75235 eV
Electronic Energy  :           -5.44010962 Eh            -148.03291 eV

One Electron Energy:           -8.22244195 Eh            -223.74402 eV
Two Electron Energy:            2.78233234 Eh              75.71111 eV

Virial components:
Potential Energy   :           -4.78888967 Eh            -130.31231 eV
Kinetic Energy     :            2.68386775 Eh              73.03175 eV
Virial Ratio       :            1.78432401


DFT components:
N(Alpha)           :        1.999977744951 electrons
N(Beta)            :        1.999977744951 electrons
N(Total)           :        3.999955489902 electrons
E(X)               :       -1.090137087987 Eh       
E(C)               :       -0.108019664179 Eh       
E(XC)              :       -1.198156752165 Eh       

---------------
SCF CONVERGENCE
---------------

  Last Energy change         ...   -1.9394e-07  Tolerance :   1.0000e-06
  Last MAX-Density change    ...    1.3018e-04  Tolerance :   1.0000e-05
  Last RMS-Density change    ...    3.5896e-05  Tolerance :   1.0000e-06
  Last Orbital Gradient      ...    5.7637e-05  Tolerance :   5.0000e-05
  Last Orbital Rotation      ...    5.0835e-05  Tolerance :   5.0000e-05

             **** THE GBW FILE WAS UPDATED (pd_cc_ts_0001.gbw) ****
             **** DENSITY FILE WAS UPDATED (pd_cc_ts_0001.scfp.tmp) ****
             **** ENERGY FILE WAS UPDATED (pd_cc_ts_0001.en.tmp) ****
----------------
ORBITAL ENERGIES
----------------

  NO   OCC          E(Eh)            E(eV) 
   0   2.0000      -0.667319       -18.1587 
   1   2.0000      -0.231599        -6.3021 
   2   0.0000      -0.026364        -0.7174 
   3   0.0000       0.261410         7.1133 
   4   0.0000       0.507143        13.8001 
   5   0.0000       0.620712        16.8904 
   6   0.0000       0.917576        24.9685 
   7   0.0000       1.260995        34.3134 

                    ********************************
                    * MULLIKEN POPULATION ANALYSIS *
                    ********************************

-----------------------
MULLIKEN ATOMIC CHARGES
-----------------------
   0 H :   -0.024112
   1 H :    0.022449
   2 H :    0.023770
   3 H :   -0.022107
Sum of atomic charges:    0.0000000

--------------------------------
MULLIKEN REDUCED ORBITAL CHARGES
--------------------------------
  0 H s       :     1.024112  s :     1.024112
  1 H s       :     0.977551  s :     0.977551
  2 H s       :     0.976230  s :     0.976230
  3 H s       :     1.022107  s :     1.022107


                     *******************************
                     * LOEWDIN POPULATION ANALYSIS *
                     *******************************

----------------------
LOEWDIN ATOMIC CHARGES
----------------------
   0 H :   -0.042305
   1 H :    0.040978
   2 H :    0.039332
   3 H :   -0.038005

-------------------------------
LOEWDIN REDUCED ORBITAL CHARGES
-------------------------------
  0 H s       :     1.042305  s :     1.042305
  1 H s       :     0.959022  s :     0.959022
  2 H s       :     0.960668  s :     0.960668
  3 H s       :     1.038005  s :     1.038005


                      *****************************
                      * MAYER POPULATION ANALYSIS *
                      *****************************

  NA   - Mulliken gross atomic population
  ZA   - Total nuclear charge
  QA   - Mulliken gross atomic charge
  VA   - Mayer's total valence
  BVA  - Mayer's bonded valence
  FA   - Mayer's free valence

  ATOM       NA         ZA         QA         VA         BVA        FA
  0 H      1.0241     1.0000    -0.0241     0.8815     0.8815    -0.0000
  1 H      0.9776     1.0000     0.0224     0.8991     0.8991    -0.0000
  2 H      0.9762     1.0000     0.0238     0.8991     0.8991     0.0000
  3 H      1.0221     1.0000    -0.0221     0.8810     0.8810     0.0000

  Mayer bond orders larger than 0.1
B(  0-H ,  1-H ) :   1.0994 B(  0-H ,  2-H ) :  -0.1090 B(  0-H ,  3-H ) :  -0.1090 
B(  1-H ,  3-H ) :  -0.1092 B(  2-H ,  3-H ) :   1.0992 

-------
TIMINGS
-------

Total SCF time: 0 days 0 hours 0 min 0 sec 

Total time                  ....       0.702 sec
Sum of individual times     ....       0.887 sec  (126.3%)

Fock matrix formation       ....       0.601 sec  ( 85.5%)
  Coulomb formation         ....       0.494 sec  ( 82.3% of F)
  XC integration            ....       0.105 sec  ( 17.5% of F)
    Basis function eval.    ....       0.043 sec  ( 40.8% of XC)
    Density eval.           ....       0.011 sec  ( 10.7% of XC)
    XC-Functional eval.     ....       0.040 sec  ( 38.0% of XC)
    XC-Potential eval.      ....       0.004 sec  (  3.6% of XC)
Diagonalization             ....       0.001 sec  (  0.1%)
Density matrix formation    ....       0.000 sec  (  0.0%)
Population analysis         ....       0.000 sec  (  0.1%)
Initial guess               ....       0.171 sec  ( 24.3%)
Orbital Transformation      ....       0.000 sec  (  0.0%)
Orbital Orthonormalization  ....       0.000 sec  (  0.0%)
DIIS solution               ....       0.000 sec  (  0.0%)
SOSCF solution              ....       0.000 sec  (  0.0%)
Grid generation             ....       0.114 sec  ( 16.2%)

-------------------------   --------------------
FINAL SINGLE POINT ENERGY        -2.105021923859
-------------------------   --------------------


                            ***************************************
                            *     ORCA property calculations      *
                            ***************************************

                                    ---------------------
                                    Active property flags
                                    ---------------------
   (+) Dipole Moment


------------------------------------------------------------------------------
                       ORCA ELECTRIC PROPERTIES CALCULATION
------------------------------------------------------------------------------

Dipole Moment Calculation                       ... on
Quadrupole Moment Calculation                   ... off
Polarizability Calculation                      ... off
GBWName                                         ... pd_cc_ts_0001.gbw
Electron density file                           ... pd_cc_ts_0001.scfp.tmp

-------------
DIPOLE MOMENT
-------------
                                X             Y             Z
Electronic contribution:      0.00136       0.00322      -0.00262
Nuclear contribution   :      0.00000       0.00000       0.00000
                        -----------------------------------------
Total Dipole Moment    :      0.00136       0.00322      -0.00262
                        -----------------------------------------
Magnitude (a.u.)       :      0.00437
Magnitude (Debye)      :      0.01110


Timings for individual modules:

Sum of individual times         ...        1.114 sec (=   0.019 min)
GTO integral calculation        ...        0.216 sec (=   0.004 min)  19.4 %
SCF iterations                  ...        0.897 sec (=   0.015 min)  80.6 %
                             ****ORCA TERMINATED NORMALLY****
TOTAL RUN TIME: 0 days 0 hours 0 minutes 1 seconds 293 msec
