 Entering Gaussian System, Link 0=/u/local/apps/gaussian/09d01/g09/g09
 Input=/u/home/w/wittig/Bickel/Alkenes/Butadiene/IRC/Ethylene-forward.com
 Output=/u/home/w/wittig/Bickel/Alkenes/Butadiene/IRC/Ethylene-forward.log
 Initial command:
 /u/local/apps/gaussian/09d01/g09/l1.exe "/work/1961630.1.msa_smp.q/Gau-1646.inp" -scrdir="/work/1961630.1.msa_smp.q/"
 Entering Link 1 = /u/local/apps/gaussian/09d01/g09/l1.exe PID=      1647.
  
 Copyright (c) 1988,1990,1992,1993,1995,1998,2003,2009,2013,
            Gaussian, Inc.  All Rights Reserved.
  
 This is part of the Gaussian(R) 09 program.  It is based on
 the Gaussian(R) 03 system (copyright 2003, Gaussian, Inc.),
 the Gaussian(R) 98 system (copyright 1998, Gaussian, Inc.),
 the Gaussian(R) 94 system (copyright 1995, Gaussian, Inc.),
 the Gaussian 92(TM) system (copyright 1992, Gaussian, Inc.),
 the Gaussian 90(TM) system (copyright 1990, Gaussian, Inc.),
 the Gaussian 88(TM) system (copyright 1988, Gaussian, Inc.),
 the Gaussian 86(TM) system (copyright 1986, Carnegie Mellon
 University), and the Gaussian 82(TM) system (copyright 1983,
 Carnegie Mellon University). Gaussian is a federally registered
 trademark of Gaussian, Inc.
  
 This software contains proprietary and confidential information,
 including trade secrets, belonging to Gaussian, Inc.
  
 This software is provided under written license and may be
 used, copied, transmitted, or stored only in accord with that
 written license.
  
 The following legend is applicable only to US Government
 contracts under FAR:
  
                    RESTRICTED RIGHTS LEGEND
  
 Use, reproduction and disclosure by the US Government is
 subject to restrictions as set forth in subparagraphs (a)
 and (c) of the Commercial Computer Software - Restricted
 Rights clause in FAR 52.227-19.
  
 Gaussian, Inc.
 340 Quinnipiac St., Bldg. 40, Wallingford CT 06492
  
  
 ---------------------------------------------------------------
 Warning -- This program may not be used in any manner that
 competes with the business of Gaussian, Inc. or will provide
 assistance to any competitor of Gaussian, Inc.  The licensee
 of this program is prohibited from giving any competitor of
 Gaussian, Inc. access to this program.  By using this program,
 the user acknowledges that Gaussian, Inc. is engaged in the
 business of creating and licensing software in the field of
 computational chemistry and represents and warrants to the
 licensee that it is not a competitor of Gaussian, Inc. and that
 it will not use this program in any manner prohibited above.
 ---------------------------------------------------------------
  

 Cite this work as:
 Gaussian 09, Revision D.01,
 M. J. Frisch, G. W. Trucks, H. B. Schlegel, G. E. Scuseria, 
 M. A. Robb, J. R. Cheeseman, G. Scalmani, V. Barone, B. Mennucci, 
 G. A. Petersson, H. Nakatsuji, M. Caricato, X. Li, H. P. Hratchian, 
 A. F. Izmaylov, J. Bloino, G. Zheng, J. L. Sonnenberg, M. Hada, 
 M. Ehara, K. Toyota, R. Fukuda, J. Hasegawa, M. Ishida, T. Nakajima, 
 Y. Honda, O. Kitao, H. Nakai, T. Vreven, J. A. Montgomery, Jr., 
 J. E. Peralta, F. Ogliaro, M. Bearpark, J. J. Heyd, E. Brothers, 
 K. N. Kudin, V. N. Staroverov, T. Keith, R. Kobayashi, J. Normand, 
 K. Raghavachari, A. Rendell, J. C. Burant, S. S. Iyengar, J. Tomasi, 
 M. Cossi, N. Rega, J. M. Millam, M. Klene, J. E. Knox, J. B. Cross, 
 V. Bakken, C. Adamo, J. Jaramillo, R. Gomperts, R. E. Stratmann, 
 O. Yazyev, A. J. Austin, R. Cammi, C. Pomelli, J. W. Ochterski, 
 R. L. Martin, K. Morokuma, V. G. Zakrzewski, G. A. Voth, 
 P. Salvador, J. J. Dannenberg, S. Dapprich, A. D. Daniels, 
 O. Farkas, J. B. Foresman, J. V. Ortiz, J. Cioslowski, 
 and D. J. Fox, Gaussian, Inc., Wallingford CT, 2013.
 
 ******************************************
 Gaussian 09:  EM64L-G09RevD.01 24-Apr-2013
                23-Mar-2017 
 ******************************************
 Default route:  MaxDisk=121GB
 ----------------------------------------------------------------------
 # irc=(forward,maxpoints=25,calcfc) 6-31+g(d) geom=connectivity rm062x
 ----------------------------------------------------------------------
 1/10=4,14=-1,18=10,22=1,26=3,38=1,42=25,44=3,57=2/1,23;
 2/12=2,17=6,18=5,29=1,40=1/2;
 3/5=1,6=6,7=11,11=2,16=1,25=1,30=1,71=2,74=-55,116=1,140=1/1,2,3;
 4//1;
 5/5=2,38=5/2;
 8/6=4,10=90,11=11/1;
 11/6=1,8=1,9=11,15=111,16=1/1,2,10;
 10/6=1,13=1/2;
 6/7=2,8=2,9=2,10=2,28=1/1;
 7/10=1,18=20,25=1/1,2,3,16;
 1/10=4,14=-1,18=10,22=1,26=3,42=25,44=3/23(2);
 2/29=1/2;
 99/5=20/99;
 2/29=1/2;
 3/5=1,6=6,7=11,11=2,16=1,25=1,30=1,71=2,74=-55,116=1,140=1/1,2,3;
 4/5=5,16=3,69=1/1;
 5/5=2,38=5/2;
 8/6=4,10=90,11=11/1;
 11/6=1,8=1,9=11,15=111,16=1/1,2,10;
 10/6=1,13=1/2;
 7/10=1,18=20,25=1/1,2,3,16;
 1/14=-1,18=10,22=1,26=3,42=25,44=3/23(-8);
 2/29=1/2;
 6/7=2,8=2,9=2,10=2,19=2,28=1/1;
 99/5=20,9=1/99;
 -------------------
 Title Card Required
 -------------------
 Symbolic Z-matrix:
 Charge =  0 Multiplicity = 1
 C                    -0.44912   1.4247   -0.5003 
 H                    -0.38144   2.50433  -0.39521 
 C                    -1.30981   0.70487   0.29709 
 H                    -1.84169   1.21911   1.09481 
 C                    -0.44815  -1.42482  -0.50033 
 H                    -0.37998  -2.50444  -0.39535 
 C                    -1.30942  -0.7056    0.29698 
 H                    -1.84134  -1.22021   1.09444 
 C                     1.5652    0.69036   0.23132 
 C                     1.5656   -0.68961   0.2314 
 H                     1.44297   1.23489   1.16063 
 H                     1.44351  -1.2341    1.16074 
 H                    -0.12083  -1.03665  -1.45857 
 H                    -0.12168   1.03679  -1.45861 
 H                     2.05701   1.23435  -0.56998 
 H                     2.05769  -1.23346  -0.56983 
 
 IRC-IRC-IRC-IRC-IRC-IRC-IRC-IRC-IRC-IRC-IRC-IRC-IRC-IRC-IRC-IRC-IRC-IRC
 ------------------------------------------------------------------------
 INPUT DATA FOR L123
 ------------------------------------------------------------------------
 GENERAL PARAMETERS:
 Rxn path following direction = Forward
 Maximum points per path      =  25
 Step size                    =   0.100 bohr
 Integration scheme           = HPC                                 
    Redo corrector integration= Yes                                 
    DWI Weight Power          =  2
    DWI will use Hessian update vectors when possible.
    Max correction cycles     =  20
 Initial Hessian              = CalcFC
 Hessian evaluation           = All updating
 Hessian updating method      = Bofill                              
 ------------------------------------------------------------------------
 IRC-IRC-IRC-IRC-IRC-IRC-IRC-IRC-IRC-IRC-IRC-IRC-IRC-IRC-IRC-IRC-IRC-IRC
                          Input orientation:                          
 ---------------------------------------------------------------------
 Center     Atomic      Atomic             Coordinates (Angstroms)
 Number     Number       Type             X           Y           Z
 ---------------------------------------------------------------------
      1          6           0       -0.449119    1.424695   -0.500299
      2          1           0       -0.381441    2.504328   -0.395213
      3          6           0       -1.309811    0.704873    0.297085
      4          1           0       -1.841692    1.219108    1.094808
      5          6           0       -0.448146   -1.424824   -0.500333
      6          1           0       -0.379979   -2.504438   -0.395348
      7          6           0       -1.309418   -0.705597    0.296984
      8          1           0       -1.841335   -1.220211    1.094436
      9          6           0        1.565196    0.690361    0.231321
     10          6           0        1.565596   -0.689608    0.231397
     11          1           0        1.442967    1.234886    1.160628
     12          1           0        1.443505   -1.234099    1.160744
     13          1           0       -0.120833   -1.036654   -1.458567
     14          1           0       -0.121682    1.036791   -1.458607
     15          1           0        2.057011    1.234352   -0.569980
     16          1           0        2.057692   -1.233464   -0.569825
 ---------------------------------------------------------------------
                    Distance matrix (angstroms):
                    1          2          3          4          5
     1  C    0.000000
     2  H    1.086844   0.000000
     3  C    1.376501   2.139903   0.000000
     4  H    2.127414   2.450364   1.087978   0.000000
     5  C    2.849519   3.931124   2.431862   3.387746   0.000000
     6  H    3.931142   5.008766   3.412291   4.268719   1.086846
     7  C    2.431855   3.412315   1.410470   2.150425   1.376514
     8  H    3.387768   4.268786   2.150403   2.439319   2.127470
     9  C    2.265387   2.733572   2.875796   3.554162   3.010460
    10  C    3.010769   3.792733   3.196382   3.999786   2.265199
    11  H    2.524816   2.713041   2.933327   3.285356   3.661852
    12  H    3.662004   4.441539   3.476531   4.100621   2.524658
    13  H    2.661633   3.706372   2.743884   3.817007   1.084446
    14  H    1.084453   1.830832   2.145757   3.084089   2.661657
    15  H    2.514314   2.754892   3.516766   4.239297   3.654022
    16  H    3.654414   4.466648   3.981050   4.898092   2.514095
                    6          7          8          9         10
     6  H    0.000000
     7  C    2.139862   0.000000
     8  H    2.450358   1.087977   0.000000
     9  C    3.792514   3.196313   3.999963   0.000000
    10  C    2.733437   2.875806   3.554371   1.379969   0.000000
    11  H    4.441479   3.476633   4.101039   1.084001   2.140604
    12  H    2.712983   2.933254   3.285539   2.140603   1.084003
    13  H    1.830842   2.145761   3.084095   2.946353   2.412563
    14  H    3.706419   2.743854   3.816974   2.412764   2.946774
    15  H    4.466315   3.980939   4.898190   1.086228   2.141335
    16  H    2.754643   3.516736   4.239381   2.141376   1.086229
                   11         12         13         14         15
    11  H    0.000000
    12  H    2.468985   0.000000
    13  H    3.803360   3.057275   0.000000
    14  H    3.057411   3.803650   2.073445   0.000000
    15  H    1.836315   3.076531   3.269566   2.361227   0.000000
    16  H    3.076541   1.836327   2.361052   3.270117   2.467816
                   16
    16  H    0.000000
 Symmetry turned off by external request.
 Stoichiometry    C6H10
 Framework group  C1[X(C6H10)]
 Deg. of freedom    42
 Full point group                 C1      NOp   1
 Rotational constants (GHZ):      4.3652894      3.4992795      2.2898018
 Standard basis: 6-31+G(d) (6D, 7F)
   134 basis functions,   232 primitive gaussians,   134 cartesian basis functions
    23 alpha electrons       23 beta electrons
       nuclear repulsion energy       224.9199146350 Hartrees.
 NAtoms=   16 NActive=   16 NUniq=   16 SFac= 1.00D+00 NAtFMM=   60 NAOKFM=F Big=F
 Integral buffers will be    131072 words long.
 Raffenetti 2 integral format.
 Two-electron integral symmetry is turned off.
 One-electron integrals computed using PRISM.
 NBasis=   134 RedAO= T EigKep=  2.85D-05  NBF=   134
 NBsUse=   134 1.00D-06 EigRej= -1.00D+00 NBFU=   134
 ExpMin= 4.38D-02 ExpMax= 3.05D+03 ExpMxC= 4.57D+02 IAcc=2 IRadAn=         4 AccDes= 0.00D+00
 Harris functional with IExCor= 1009 and IRadAn=       4 diagonalized for initial guess.
 HarFok:  IExCor= 1009 AccDes= 0.00D+00 IRadAn=         4 IDoV= 1 UseB2=F ITyADJ=14
 ICtDFT=  3500011 ScaDFX=  1.000000  1.000000  1.000000  1.000000
 FoFCou: FMM=F IPFlag=           0 FMFlag=      100000 FMFlg1=           0
         NFxFlg=           0 DoJE=T BraDBF=F KetDBF=T FulRan=T
         wScrn=  0.000000 ICntrl=     500 IOpCl=  0 I1Cent=   200000004 NGrid=           0
         NMat0=    1 NMatS0=      1 NMatT0=    0 NMatD0=    1 NMtDS0=    0 NMtDT0=    0
 Symmetry not used in FoFCou.
 Requested convergence on RMS density matrix=1.00D-08 within 128 cycles.
 Requested convergence on MAX density matrix=1.00D-06.
 Requested convergence on             energy=1.00D-06.
 No special actions if energy rises.
 SCF Done:  E(RM062X) =  -234.421141658     A.U. after   13 cycles
            NFock= 13  Conv=0.24D-08     -V/T= 2.0093
 DoSCS=F DFT=T ScalE2(SS,OS)=  1.000000  1.000000
 Range of M.O.s used for correlation:     1   134
 NBasis=   134 NAE=    23 NBE=    23 NFC=     0 NFV=     0
 NROrb=    134 NOA=    23 NOB=    23 NVA=   111 NVB=   111

 **** Warning!!: The largest alpha MO coefficient is  0.62976864D+02

 Symmetrizing basis deriv contribution to polar:
 IMax=3 JMax=2 DiffMx= 0.00D+00
 G2DrvN: will do    17 centers at a time, making    1 passes.
 Calling FoFCou, ICntrl=  3107 FMM=F I1Cent=   0 AccDes= 0.00D+00.
 End of G2Drv F.D. properties file   721 does not exist.
 End of G2Drv F.D. properties file   722 does not exist.
 End of G2Drv F.D. properties file   788 does not exist.
          IDoAtm=1111111111111111
          Differentiating once with respect to nuclear coordinates.
          There are    51 degrees of freedom in the 1st order CPHF.  IDoFFX=6 NUNeed=     0.
     45 vectors produced by pass  0 Test12= 5.01D-15 1.96D-09 XBig12= 7.08D-02 9.33D-02.
 AX will form    45 AO Fock derivatives at one time.
     45 vectors produced by pass  1 Test12= 5.01D-15 1.96D-09 XBig12= 6.22D-03 1.84D-02.
     45 vectors produced by pass  2 Test12= 5.01D-15 1.96D-09 XBig12= 1.01D-04 2.06D-03.
     45 vectors produced by pass  3 Test12= 5.01D-15 1.96D-09 XBig12= 4.97D-07 1.71D-04.
     45 vectors produced by pass  4 Test12= 5.01D-15 1.96D-09 XBig12= 1.71D-09 4.70D-06.
     45 vectors produced by pass  5 Test12= 5.01D-15 1.96D-09 XBig12= 5.08D-12 2.67D-07.
     29 vectors produced by pass  6 Test12= 5.01D-15 1.96D-09 XBig12= 1.86D-14 2.85D-08.
      6 vectors produced by pass  7 Test12= 5.01D-15 1.96D-09 XBig12= 4.57D-16 5.83D-09.
      1 vectors produced by pass  8 Test12= 5.01D-15 1.96D-09 XBig12= 9.06D-17 2.48D-09.
 InvSVY:  IOpt=1 It=  1 EMax= 4.44D-16
 Solved reduced A of dimension   306 with    51 vectors.
 End of Minotr F.D. properties file   721 does not exist.
 End of Minotr F.D. properties file   722 does not exist.
 End of Minotr F.D. properties file   788 does not exist.

 **********************************************************************

            Population analysis using the SCF density.

 **********************************************************************

 Alpha  occ. eigenvalues --  -10.55577 -10.55575 -10.54964 -10.54881 -10.54470
 Alpha  occ. eigenvalues --  -10.54402  -0.91268  -0.84449  -0.81423  -0.70942
 Alpha  occ. eigenvalues --   -0.66451  -0.59785  -0.56758  -0.53734  -0.49623
 Alpha  occ. eigenvalues --   -0.47220  -0.47209  -0.42988  -0.41778  -0.41080
 Alpha  occ. eigenvalues --   -0.40363  -0.27930  -0.27790
 Alpha virt. eigenvalues --    0.00191   0.02339   0.03088   0.03668   0.03944
 Alpha virt. eigenvalues --    0.05564   0.05956   0.06988   0.07536   0.08486
 Alpha virt. eigenvalues --    0.09349   0.10618   0.11084   0.11577   0.12218
 Alpha virt. eigenvalues --    0.12326   0.13227   0.13888   0.14998   0.16244
 Alpha virt. eigenvalues --    0.16472   0.17005   0.18738   0.19406   0.21195
 Alpha virt. eigenvalues --    0.22036   0.23991   0.24471   0.24504   0.29964
 Alpha virt. eigenvalues --    0.30164   0.33780   0.34379   0.36000   0.36546
 Alpha virt. eigenvalues --    0.37201   0.37249   0.39549   0.43994   0.48030
 Alpha virt. eigenvalues --    0.48963   0.58948   0.64264   0.67822   0.71108
 Alpha virt. eigenvalues --    0.73291   0.76187   0.77962   0.78684   0.78981
 Alpha virt. eigenvalues --    0.81619   0.84292   0.85242   0.86736   0.88211
 Alpha virt. eigenvalues --    0.94292   0.96849   1.00227   1.00657   1.01740
 Alpha virt. eigenvalues --    1.04206   1.05228   1.10603   1.12153   1.12969
 Alpha virt. eigenvalues --    1.13607   1.17391   1.17526   1.20860   1.21049
 Alpha virt. eigenvalues --    1.26496   1.31126   1.32958   1.44691   1.46175
 Alpha virt. eigenvalues --    1.54373   1.58067   1.65829   1.66435   1.78482
 Alpha virt. eigenvalues --    1.79905   1.87716   1.97872   2.00189   2.01916
 Alpha virt. eigenvalues --    2.05227   2.05764   2.12053   2.14156   2.17155
 Alpha virt. eigenvalues --    2.19537   2.26354   2.26648   2.30848   2.31898
 Alpha virt. eigenvalues --    2.34717   2.46839   2.58069   2.61075   2.65256
 Alpha virt. eigenvalues --    2.65695   2.72102   2.76115   2.90457   3.07842
 Alpha virt. eigenvalues --    4.21968   4.29826   4.34994   4.38352   4.53657
 Alpha virt. eigenvalues --    4.58483
          Condensed to atoms (all electrons):
               1          2          3          4          5          6
     1  C    5.887853   0.361468   0.374612  -0.022128  -0.323468   0.007507
     2  H    0.361468   0.479985  -0.033578  -0.004708   0.007504  -0.000006
     3  C    0.374612  -0.033578   5.253733   0.333604  -0.136362   0.019835
     4  H   -0.022128  -0.004708   0.333604   0.508806  -0.005255  -0.000107
     5  C   -0.323468   0.007504  -0.136362  -0.005255   5.887986   0.361455
     6  H    0.007507  -0.000006   0.019835  -0.000107   0.361455   0.479993
     7  C   -0.136438   0.019825   0.424629  -0.006170   0.374574  -0.033586
     8  H   -0.005232  -0.000107  -0.006198  -0.005794  -0.022166  -0.004708
     9  C    0.420878  -0.023569  -0.087790   0.005903  -0.292632   0.010700
    10  C   -0.292562   0.010698  -0.116824  -0.004184   0.420789  -0.023569
    11  H   -0.026706  -0.000658  -0.003085   0.000189   0.007305  -0.000025
    12  H    0.007305  -0.000025   0.000476   0.000003  -0.026723  -0.000659
    13  H   -0.023544   0.000038   0.039502  -0.000013   0.412575  -0.029898
    14  H    0.412573  -0.029900  -0.078771   0.003759  -0.023546   0.000038
    15  H   -0.039117   0.000302   0.000773  -0.000030   0.012698  -0.000028
    16  H    0.012706  -0.000028   0.004869   0.000004  -0.039143   0.000302
               7          8          9         10         11         12
     1  C   -0.136438  -0.005232   0.420878  -0.292562  -0.026706   0.007305
     2  H    0.019825  -0.000107  -0.023569   0.010698  -0.000658  -0.000025
     3  C    0.424629  -0.006198  -0.087790  -0.116824  -0.003085   0.000476
     4  H   -0.006170  -0.005794   0.005903  -0.004184   0.000189   0.000003
     5  C    0.374574  -0.022166  -0.292632   0.420789   0.007305  -0.026723
     6  H   -0.033586  -0.004708   0.010700  -0.023569  -0.000025  -0.000659
     7  C    5.253904   0.333655  -0.116876  -0.087809   0.000479  -0.003073
     8  H    0.333655   0.508799  -0.004182   0.005895   0.000003   0.000190
     9  C   -0.116876  -0.004182   5.919425  -0.034860   0.382971  -0.029868
    10  C   -0.087809   0.005895  -0.034860   5.919358  -0.029846   0.382998
    11  H    0.000479   0.000003   0.382971  -0.029846   0.472976  -0.005433
    12  H   -0.003073   0.000190  -0.029868   0.382998  -0.005433   0.472972
    13  H   -0.078729   0.003759  -0.017113  -0.024761  -0.000027   0.000977
    14  H    0.039532  -0.000013  -0.024725  -0.017114   0.000976  -0.000027
    15  H    0.004879   0.000004   0.399394  -0.047036  -0.027947   0.003088
    16  H    0.000788  -0.000030  -0.047038   0.399408   0.003088  -0.027947
              13         14         15         16
     1  C   -0.023544   0.412573  -0.039117   0.012706
     2  H    0.000038  -0.029900   0.000302  -0.000028
     3  C    0.039502  -0.078771   0.000773   0.004869
     4  H   -0.000013   0.003759  -0.000030   0.000004
     5  C    0.412575  -0.023546   0.012698  -0.039143
     6  H   -0.029898   0.000038  -0.000028   0.000302
     7  C   -0.078729   0.039532   0.004879   0.000788
     8  H    0.003759  -0.000013   0.000004  -0.000030
     9  C   -0.017113  -0.024725   0.399394  -0.047038
    10  C   -0.024761  -0.017114  -0.047036   0.399408
    11  H   -0.000027   0.000976  -0.027947   0.003088
    12  H    0.000977  -0.000027   0.003088  -0.027947
    13  H    0.502269   0.005636   0.000385  -0.003358
    14  H    0.005636   0.502261  -0.003355   0.000385
    15  H    0.000385  -0.003355   0.482597  -0.005434
    16  H   -0.003358   0.000385  -0.005434   0.482590
 Mulliken charges:
               1
     1  C   -0.615707
     2  H    0.212758
     3  C    0.010575
     4  H    0.196122
     5  C   -0.615589
     6  H    0.212755
     7  C    0.010414
     8  H    0.196124
     9  C   -0.460618
    10  C   -0.460582
    11  H    0.225740
    12  H    0.225747
    13  H    0.212301
    14  H    0.212292
    15  H    0.218827
    16  H    0.218840
 Sum of Mulliken charges =   0.00000
 Mulliken charges with hydrogens summed into heavy atoms:
               1
     1  C   -0.190657
     3  C    0.206696
     5  C   -0.190532
     7  C    0.206538
     9  C   -0.016051
    10  C   -0.015995
 APT charges:
               1
     1  C   -0.935048
     2  H    0.567781
     3  C   -0.479297
     4  H    0.531917
     5  C   -0.934824
     6  H    0.567769
     7  C   -0.479659
     8  H    0.531993
     9  C   -0.967242
    10  C   -0.967205
    11  H    0.431675
    12  H    0.431623
    13  H    0.353818
    14  H    0.353816
    15  H    0.496427
    16  H    0.496454
 Sum of APT charges =   0.00000
 APT charges with hydrogens summed into heavy atoms:
               1
     1  C   -0.013451
     3  C    0.052620
     5  C   -0.013236
     7  C    0.052334
     9  C   -0.039140
    10  C   -0.039127
 Electronic spatial extent (au):  <R**2>=            612.1314
 Charge=              0.0000 electrons
 Dipole moment (field-independent basis, Debye):
    X=              0.4665    Y=              0.0000    Z=              0.0229  Tot=              0.4671
 Quadrupole moment (field-independent basis, Debye-Ang):
   XX=            -43.4181   YY=            -36.3569   ZZ=            -37.7338
   XY=             -0.0018   XZ=             -3.4932   YZ=             -0.0007
 Traceless Quadrupole moment (field-independent basis, Debye-Ang):
   XX=             -4.2485   YY=              2.8127   ZZ=              1.4358
   XY=             -0.0018   XZ=             -3.4932   YZ=             -0.0007
 Octapole moment (field-independent basis, Debye-Ang**2):
  XXX=             -1.6404  YYY=              0.0015  ZZZ=             -0.0476  XYY=              1.8996
  XXY=             -0.0038  XXZ=              2.0696  XZZ=              1.2344  YZZ=              0.0014
  YYZ=              1.7279  XYZ=              0.0005
 Hexadecapole moment (field-independent basis, Debye-Ang**3):
 XXXX=           -462.2620 YYYY=           -320.6310 ZZZZ=           -111.9721 XXXY=             -0.0076
 XXXZ=            -24.0852 YYYX=             -0.0084 YYYZ=             -0.0042 ZZZX=             -5.6237
 ZZZY=             -0.0009 XXYY=           -128.5356 XXZZ=            -87.5056 YYZZ=            -75.5372
 XXYZ=             -0.0026 YYXZ=             -6.6293 ZZXY=             -0.0013
 N-N= 2.249199146350D+02 E-N=-9.914187481593D+02  KE= 2.322529984410D+02
  Exact polarizability:   0.000   0.000   0.000   0.000   0.000   0.000
 Approx polarizability: 114.012  -0.002 113.414  -5.134  -0.003  71.897
 Calling FoFJK, ICntrl=    100147 FMM=F ISym2X=0 I1Cent= 0 IOpClX= 0 NMat=1 NMatS=1 NMatT=0.
 -------------------------------------------------------------------
 Center     Atomic                   Forces (Hartrees/Bohr)
 Number     Number              X              Y              Z
 -------------------------------------------------------------------
      1        6           0.000071099   -0.000001089    0.000009482
      2        1           0.000000444    0.000003268   -0.000004875
      3        6          -0.000001159    0.000023322   -0.000001886
      4        1          -0.000011142    0.000000426   -0.000011621
      5        6           0.000043494   -0.000006222    0.000011867
      6        1           0.000002861   -0.000003998   -0.000010571
      7        6          -0.000010379   -0.000016974   -0.000002878
      8        1           0.000005608   -0.000004613   -0.000003217
      9        6          -0.000044748    0.000010395   -0.000020207
     10        6          -0.000071242   -0.000008817   -0.000017801
     11        1           0.000000480   -0.000002451    0.000008582
     12        1           0.000009471    0.000002899    0.000009374
     13        1          -0.000002441   -0.000013296    0.000001955
     14        1          -0.000005645    0.000012684    0.000004540
     15        1           0.000005874    0.000009719    0.000012622
     16        1           0.000007425   -0.000005254    0.000014632
 -------------------------------------------------------------------
 Cartesian Forces:  Max     0.000071242 RMS     0.000019313
 IRC-IRC-IRC-IRC-IRC-IRC-IRC-IRC-IRC-IRC-IRC-IRC-IRC-IRC-IRC-IRC-IRC-IRC
          ******** Start new reaction path calculation ********
 Supplied step size of   0.1000 bohr.
    Integration on MW PES will use step size of   0.2951 sqrt(amu)*bohr.
 Point Number:   0          Path Number:   1
 Calculating another point on the path.
 IRC-IRC-IRC-IRC-IRC-IRC-IRC-IRC-IRC-IRC-IRC-IRC-IRC-IRC-IRC-IRC-IRC-IRC
                          Input orientation:                          
 ---------------------------------------------------------------------
 Center     Atomic      Atomic             Coordinates (Angstroms)
 Number     Number       Type             X           Y           Z
 ---------------------------------------------------------------------
      1          6           0       -0.401684    1.418370   -0.498348
      2          1           0       -0.340462    2.498889   -0.396096
      3          6           0       -1.281269    0.700980    0.294284
      4          1           0       -1.818244    1.219064    1.086115
      5          6           0       -0.400717   -1.418476   -0.498382
      6          1           0       -0.339000   -2.498978   -0.396228
      7          6           0       -1.280875   -0.701690    0.294186
      8          1           0       -1.817869   -1.220154    1.085752
      9          6           0        1.572342    0.695605    0.220364
     10          6           0        1.572741   -0.694846    0.220439
     11          1           0        1.476366    1.233515    1.157194
     12          1           0        1.476893   -1.232709    1.157309
     13          1           0       -0.100719   -1.038014   -1.469535
     14          1           0       -0.101552    1.038157   -1.469563
     15          1           0        2.088507    1.231939   -0.571289
     16          1           0        2.089183   -1.231034   -0.571134
 ---------------------------------------------------------------------
                    Distance matrix (angstroms):
                    1          2          3          4          5
     1  C    0.000000
     2  H    1.087071   0.000000
     3  C    1.384408   2.143413   0.000000
     4  H    2.134687   2.453312   1.088002   0.000000
     5  C    2.836846   3.919163   2.428124   3.387717   0.000000
     6  H    3.919180   4.997867   3.406524   4.267239   1.087073
     7  C    2.428115   3.406548   1.402670   2.145976   1.384422
     8  H    3.387737   4.267304   2.145953   2.439218   2.134744
     9  C    2.221648   2.700125   2.854574   3.538306   2.979748
    10  C    2.980049   3.773645   3.177917   3.988887   2.221459
    11  H    2.510391   2.704579   2.938155   3.295408   3.646564
    12  H    3.646708   4.431780   3.477272   4.107820   2.510227
    13  H    2.658497   3.703974   2.743876   3.817805   1.085305
    14  H    1.085311   1.828427   2.148623   3.084031   2.658522
    15  H    2.498225   2.745131   3.519449   4.243802   3.636791
    16  H    3.637178   4.454900   3.980148   4.900759   2.498005
                    6          7          8          9         10
     6  H    0.000000
     7  C    2.143371   0.000000
     8  H    2.453305   1.088000   0.000000
     9  C    3.773430   3.177850   3.989055   0.000000
    10  C    2.699986   2.854576   3.538495   1.390451   0.000000
    11  H    4.431723   3.477381   4.108233   1.084531   2.146013
    12  H    2.704511   2.938068   3.295562   2.146013   1.084533
    13  H    1.828437   2.148626   3.084034   2.942843   2.402965
    14  H    3.704019   2.743845   3.817768   2.403148   2.943240
    15  H    4.454568   3.980038   4.900848   1.086644   2.146007
    16  H    2.744877   3.519414   4.243871   2.146050   1.086645
                   11         12         13         14         15
    11  H    0.000000
    12  H    2.466224   0.000000
    13  H    3.814019   3.070354   0.000000
    14  H    3.070479   3.814286   2.076171   0.000000
    15  H    1.833677   3.071908   3.279061   2.375038   0.000000
    16  H    3.071915   1.833690   2.374879   3.279592   2.462973
                   16
    16  H    0.000000
 Symmetry turned off by external request.
 Stoichiometry    C6H10
 Framework group  C1[X(C6H10)]
 Deg. of freedom    42
 Full point group                 C1      NOp   1
 Rotational constants (GHZ):      4.3888731      3.5511761      2.3150270
 Standard basis: 6-31+G(d) (6D, 7F)
   134 basis functions,   232 primitive gaussians,   134 cartesian basis functions
    23 alpha electrons       23 beta electrons
       nuclear repulsion energy       225.4917587623 Hartrees.
 NAtoms=   16 NActive=   16 NUniq=   16 SFac= 1.00D+00 NAtFMM=   60 NAOKFM=F Big=F
 Integral buffers will be    131072 words long.
 Raffenetti 2 integral format.
 Two-electron integral symmetry is turned off.
 One-electron integrals computed using PRISM.
 NBasis=   134 RedAO= T EigKep=  2.86D-05  NBF=   134
 NBsUse=   134 1.00D-06 EigRej= -1.00D+00 NBFU=   134
 Initial guess from the checkpoint file:  "/work/1961630.1.msa_smp.q/Gau-1647.chk"
 B after Tr=     0.053254    0.000014   -0.007897
         Rot=    1.000000    0.000000    0.000052    0.000000 Ang=   0.01 deg.
 ExpMin= 4.38D-02 ExpMax= 3.05D+03 ExpMxC= 4.57D+02 IAcc=2 IRadAn=         4 AccDes= 0.00D+00
 Harris functional with IExCor= 1009 and IRadAn=       4 diagonalized for initial guess.
 HarFok:  IExCor= 1009 AccDes= 0.00D+00 IRadAn=         4 IDoV= 1 UseB2=F ITyADJ=14
 ICtDFT=  3500011 ScaDFX=  1.000000  1.000000  1.000000  1.000000
 FoFCou: FMM=F IPFlag=           0 FMFlag=      100000 FMFlg1=           0
         NFxFlg=           0 DoJE=T BraDBF=F KetDBF=T FulRan=T
         wScrn=  0.000000 ICntrl=     500 IOpCl=  0 I1Cent=   200000004 NGrid=           0
         NMat0=    1 NMatS0=      1 NMatT0=    0 NMatD0=    1 NMtDS0=    0 NMtDT0=    0
 Symmetry not used in FoFCou.
 Requested convergence on RMS density matrix=1.00D-08 within 128 cycles.
 Requested convergence on MAX density matrix=1.00D-06.
 Requested convergence on             energy=1.00D-06.
 No special actions if energy rises.
 SCF Done:  E(RM062X) =  -234.421595871     A.U. after   11 cycles
            NFock= 11  Conv=0.64D-08     -V/T= 2.0095
 DoSCS=F DFT=T ScalE2(SS,OS)=  1.000000  1.000000
 Range of M.O.s used for correlation:     1   134
 NBasis=   134 NAE=    23 NBE=    23 NFC=     0 NFV=     0
 NROrb=    134 NOA=    23 NOB=    23 NVA=   111 NVB=   111

 **** Warning!!: The largest alpha MO coefficient is  0.62828353D+02

 Symmetrizing basis deriv contribution to polar:
 IMax=3 JMax=2 DiffMx= 0.00D+00
 Calling FoFJK, ICntrl=      2147 FMM=F ISym2X=0 I1Cent= 0 IOpClX= 0 NMat=1 NMatS=1 NMatT=0.
 -------------------------------------------------------------------
 Center     Atomic                   Forces (Hartrees/Bohr)
 Number     Number              X              Y              Z
 -------------------------------------------------------------------
      1        6           0.004933847   -0.001450320    0.001026350
      2        1           0.000198386   -0.000094921    0.000041681
      3        6          -0.000009656   -0.000979646    0.000529931
      4        1          -0.000136483   -0.000005167   -0.000149889
      5        6           0.004905867    0.001445544    0.001028270
      6        1           0.000200798    0.000094262    0.000035996
      7        6          -0.000019025    0.000985744    0.000529448
      8        1          -0.000119533    0.000000900   -0.000141292
      9        6          -0.004838786    0.002069215   -0.001623817
     10        6          -0.004865416   -0.002069663   -0.001621963
     11        1           0.000144674   -0.000164534   -0.000139434
     12        1           0.000153350    0.000165002   -0.000138576
     13        1          -0.000292218   -0.000179903    0.000095289
     14        1          -0.000295138    0.000178964    0.000097686
     15        1           0.000018911   -0.000156866    0.000214132
     16        1           0.000020421    0.000161390    0.000216190
 -------------------------------------------------------------------
 Cartesian Forces:  Max     0.004933847 RMS     0.001573471
 IRC-IRC-IRC-IRC-IRC-IRC-IRC-IRC-IRC-IRC-IRC-IRC-IRC-IRC-IRC-IRC-IRC-IRC
 Pt  1 Step number   1 out of a maximum of  20
 Modified Bulirsch-Stoer Extrapolation Cycles:
    EPS =    0.000010000000000
 Maximum DWI energy   std dev =  0.000003229 at pt    60
 Maximum DWI gradient std dev =  0.117657586 at pt     4
 CORRECTOR INTEGRATION CONVERGENCE:
   Recorrection delta-x convergence threshold:    0.010000
   Delta-x Convergence Met
 Point Number:   1          Path Number:   1
   CHANGE IN THE REACTION COORDINATE =    0.29502
   NET REACTION COORDINATE UP TO THIS POINT =    0.29502
  # OF POINTS ALONG THE PATH =   1
  # OF STEPS =   1

 Calculating another point on the path.
 IRC-IRC-IRC-IRC-IRC-IRC-IRC-IRC-IRC-IRC-IRC-IRC-IRC-IRC-IRC-IRC-IRC-IRC
                          Input orientation:                          
 ---------------------------------------------------------------------
 Center     Atomic      Atomic             Coordinates (Angstroms)
 Number     Number       Type             X           Y           Z
 ---------------------------------------------------------------------
      1          6           0       -0.382032    1.412407   -0.492513
      2          1           0       -0.329454    2.494017   -0.393543
      3          6           0       -1.280914    0.696974    0.295842
      4          1           0       -1.824662    1.219255    1.080321
      5          6           0       -0.381134   -1.412525   -0.492574
      6          1           0       -0.327979   -2.494117   -0.393712
      7          6           0       -1.280510   -0.697688    0.295771
      8          1           0       -1.823990   -1.220353    1.080172
      9          6           0        1.551831    0.701567    0.213450
     10          6           0        1.552182   -0.700795    0.213517
     11          1           0        1.482556    1.231515    1.157955
     12          1           0        1.483154   -1.230682    1.158083
     13          1           0       -0.109963   -1.040735   -1.476633
     14          1           0       -0.110688    1.040846   -1.476607
     15          1           0        2.093523    1.229436   -0.567584
     16          1           0        2.094196   -1.228470   -0.567429
 ---------------------------------------------------------------------
                    Distance matrix (angstroms):
                    1          2          3          4          5
     1  C    0.000000
     2  H    1.087400   0.000000
     3  C    1.393319   2.147066   0.000000
     4  H    2.142965   2.456205   1.088047   0.000000
     5  C    2.824932   3.908138   2.425116   3.388810   0.000000
     6  H    3.908147   4.988134   3.400974   4.266376   1.087401
     7  C    2.425109   3.400976   1.394661   2.141562   1.393326
     8  H    3.388806   4.266382   2.141552   2.439607   2.142964
     9  C    2.177959   2.668436   2.833947   3.524227   2.950289
    10  C    2.950472   3.757113   3.160216   3.980077   2.177805
    11  H    2.496689   2.698970   2.943763   3.308153   3.631602
    12  H    3.631708   4.423400   3.478417   4.117024   2.496658
    13  H    2.657145   3.703476   2.744527   3.819131   1.086340
    14  H    1.086336   1.825539   2.151570   3.083410   2.657158
    15  H    2.483443   2.738663   3.523613   4.250632   3.620706
    16  H    3.620987   4.445360   3.980445   4.905496   2.483292
                    6          7          8          9         10
     6  H    0.000000
     7  C    2.147058   0.000000
     8  H    2.456188   1.088041   0.000000
     9  C    3.756957   3.160197   3.980094   0.000000
    10  C    2.668283   2.833887   3.524141   1.402362   0.000000
    11  H    4.423352   3.478465   4.117154   1.085234   2.151891
    12  H    2.698988   2.943722   3.308078   2.151890   1.085241
    13  H    1.825532   2.151576   3.083408   2.941693   2.394763
    14  H    3.703490   2.744504   3.819102   2.394864   2.941932
    15  H    4.445082   3.980363   4.905454   1.087240   2.151502
    16  H    2.738425   3.523562   4.250511   2.151505   1.087243
                   11         12         13         14         15
    11  H    0.000000
    12  H    2.462197   0.000000
    13  H    3.826263   3.084773   0.000000
    14  H    3.084752   3.826455   2.081581   0.000000
    15  H    1.830511   3.066375   3.291717   2.391743   0.000000
    16  H    3.066363   1.830510   2.391697   3.292099   2.457906
                   16
    16  H    0.000000
 Symmetry turned off by external request.
 Stoichiometry    C6H10
 Framework group  C1[X(C6H10)]
 Deg. of freedom    42
 Full point group                 C1      NOp   1
 Rotational constants (GHZ):      4.4103877      3.6016943      2.3389412
 Standard basis: 6-31+G(d) (6D, 7F)
   134 basis functions,   232 primitive gaussians,   134 cartesian basis functions
    23 alpha electrons       23 beta electrons
       nuclear repulsion energy       226.0133128584 Hartrees.
 NAtoms=   16 NActive=   16 NUniq=   16 SFac= 1.00D+00 NAtFMM=   60 NAOKFM=F Big=F
 Integral buffers will be    131072 words long.
 Raffenetti 2 integral format.
 Two-electron integral symmetry is turned off.
 One-electron integrals computed using PRISM.
 NBasis=   134 RedAO= T EigKep=  2.87D-05  NBF=   134
 NBsUse=   134 1.00D-06 EigRej= -1.00D+00 NBFU=   134
 Initial guess from the checkpoint file:  "/work/1961630.1.msa_smp.q/Gau-1647.chk"
 B after Tr=     0.000282    0.000001   -0.000246
         Rot=    1.000000    0.000001    0.000073    0.000000 Ang=   0.01 deg.
 ExpMin= 4.38D-02 ExpMax= 3.05D+03 ExpMxC= 4.57D+02 IAcc=2 IRadAn=         4 AccDes= 0.00D+00
 Harris functional with IExCor= 1009 and IRadAn=       4 diagonalized for initial guess.
 HarFok:  IExCor= 1009 AccDes= 0.00D+00 IRadAn=         4 IDoV= 1 UseB2=F ITyADJ=14
 ICtDFT=  3500011 ScaDFX=  1.000000  1.000000  1.000000  1.000000
 FoFCou: FMM=F IPFlag=           0 FMFlag=      100000 FMFlg1=           0
         NFxFlg=           0 DoJE=T BraDBF=F KetDBF=T FulRan=T
         wScrn=  0.000000 ICntrl=     500 IOpCl=  0 I1Cent=   200000004 NGrid=           0
         NMat0=    1 NMatS0=      1 NMatT0=    0 NMatD0=    1 NMtDS0=    0 NMtDT0=    0
 Symmetry not used in FoFCou.
 Requested convergence on RMS density matrix=1.00D-08 within 128 cycles.
 Requested convergence on MAX density matrix=1.00D-06.
 Requested convergence on             energy=1.00D-06.
 No special actions if energy rises.
 SCF Done:  E(RM062X) =  -234.423102306     A.U. after   11 cycles
            NFock= 11  Conv=0.71D-08     -V/T= 2.0097
 DoSCS=F DFT=T ScalE2(SS,OS)=  1.000000  1.000000
 Range of M.O.s used for correlation:     1   134
 NBasis=   134 NAE=    23 NBE=    23 NFC=     0 NFV=     0
 NROrb=    134 NOA=    23 NOB=    23 NVA=   111 NVB=   111

 **** Warning!!: The largest alpha MO coefficient is  0.62665096D+02

 Symmetrizing basis deriv contribution to polar:
 IMax=3 JMax=2 DiffMx= 0.00D+00
 Calling FoFJK, ICntrl=      2147 FMM=F ISym2X=0 I1Cent= 0 IOpClX= 0 NMat=1 NMatS=1 NMatT=0.
 -------------------------------------------------------------------
 Center     Atomic                   Forces (Hartrees/Bohr)
 Number     Number              X              Y              Z
 -------------------------------------------------------------------
      1        6           0.011133214   -0.003159053    0.002261847
      2        1           0.000415961   -0.000232880    0.000097047
      3        6          -0.000165775   -0.002325975    0.001273622
      4        1          -0.000310919   -0.000016442   -0.000339346
      5        6           0.011126059    0.003163221    0.002257863
      6        1           0.000415613    0.000232159    0.000096913
      7        6          -0.000164593    0.002326685    0.001277452
      8        1          -0.000311632    0.000014689   -0.000335779
      9        6          -0.010819720    0.004957156   -0.003643272
     10        6          -0.010821558   -0.004962163   -0.003643785
     11        1           0.000353499   -0.000352579   -0.000308993
     12        1           0.000352673    0.000354689   -0.000312618
     13        1          -0.000687252   -0.000386355    0.000175398
     14        1          -0.000686310    0.000385142    0.000173504
     15        1           0.000085898   -0.000390171    0.000484650
     16        1           0.000084844    0.000391876    0.000485497
 -------------------------------------------------------------------
 Cartesian Forces:  Max     0.011133214 RMS     0.003552197
 IRC-IRC-IRC-IRC-IRC-IRC-IRC-IRC-IRC-IRC-IRC-IRC-IRC-IRC-IRC-IRC-IRC-IRC
 Pt  2 Step number   1 out of a maximum of  20
 Modified Bulirsch-Stoer Extrapolation Cycles:
    EPS =    0.000010000000000
 Maximum DWI energy   std dev =  0.000016880 at pt    70
 Maximum DWI gradient std dev =  0.085203099 at pt    55
 CORRECTOR INTEGRATION CONVERGENCE:
   Recorrection delta-x convergence threshold:    0.010000
   Delta-x Convergence Met
 Point Number:   2          Path Number:   1
   CHANGE IN THE REACTION COORDINATE =    0.29493
   NET REACTION COORDINATE UP TO THIS POINT =    0.58995
  # OF POINTS ALONG THE PATH =   2
  # OF STEPS =   1

 Calculating another point on the path.
 IRC-IRC-IRC-IRC-IRC-IRC-IRC-IRC-IRC-IRC-IRC-IRC-IRC-IRC-IRC-IRC-IRC-IRC
                          Input orientation:                          
 ---------------------------------------------------------------------
 Center     Atomic      Atomic             Coordinates (Angstroms)
 Number     Number       Type             X           Y           Z
 ---------------------------------------------------------------------
      1          6           0       -0.362248    1.406747   -0.487154
      2          1           0       -0.320086    2.489499   -0.391517
      3          6           0       -1.280966    0.692796    0.297817
      4          1           0       -1.832445    1.219610    1.073852
      5          6           0       -0.361360   -1.406858   -0.487214
      6          1           0       -0.318622   -2.489599   -0.391691
      7          6           0       -1.280564   -0.693512    0.297753
      8          1           0       -1.831768   -1.220713    1.073721
      9          6           0        1.531775    0.708625    0.206636
     10          6           0        1.532124   -0.707860    0.206699
     11          1           0        1.489950    1.229105    1.158606
     12          1           0        1.490530   -1.228265    1.158717
     13          1           0       -0.121310   -1.044763   -1.483859
     14          1           0       -0.122035    1.044870   -1.483841
     15          1           0        2.100161    1.226119   -0.562955
     16          1           0        2.100829   -1.225137   -0.562803
 ---------------------------------------------------------------------
                    Distance matrix (angstroms):
                    1          2          3          4          5
     1  C    0.000000
     2  H    1.087784   0.000000
     3  C    1.403549   2.150956   0.000000
     4  H    2.152496   2.459096   1.088068   0.000000
     5  C    2.813605   3.897750   2.422911   3.391070   0.000000
     6  H    3.897759   4.979098   3.395463   4.265877   1.087786
     7  C    2.422905   3.395462   1.386308   2.137040   1.403557
     8  H    3.391071   4.265885   2.137037   2.440323   2.152503
     9  C    2.134489   2.637933   2.814263   3.511574   2.922440
    10  C    2.922608   3.743213   3.143822   3.973339   2.134337
    11  H    2.484094   2.695868   2.950688   3.323490   3.617233
    12  H    3.617315   4.416257   3.480347   4.128130   2.484046
    13  H    2.657324   3.704555   2.745594   3.820636   1.087216
    14  H    1.087217   1.821908   2.154387   3.081855   2.657350
    15  H    2.470189   2.735528   3.529502   4.259645   3.605190
    16  H    3.605452   4.437194   3.981918   4.911830   2.470043
                    6          7          8          9         10
     6  H    0.000000
     7  C    2.150952   0.000000
     8  H    2.459088   1.088069   0.000000
     9  C    3.743073   3.143810   3.973361   0.000000
    10  C    2.637787   2.814198   3.511483   1.416485   0.000000
    11  H    4.416232   3.480412   4.128271   1.085769   2.158642
    12  H    2.695878   2.950624   3.323393   2.158634   1.085768
    13  H    1.821899   2.154389   3.081857   2.943609   2.388584
    14  H    3.704579   2.745585   3.820625   2.388694   2.943845
    15  H    4.436936   3.981847   4.911798   1.087719   2.157616
    16  H    2.735303   3.529448   4.259525   2.157613   1.087720
                   11         12         13         14         15
    11  H    0.000000
    12  H    2.457370   0.000000
    13  H    3.840476   3.100792   0.000000
    14  H    3.100800   3.840654   2.089633   0.000000
    15  H    1.826509   3.059380   3.307552   2.412268   0.000000
    16  H    3.059366   1.826502   2.412215   3.307925   2.451256
                   16
    16  H    0.000000
 Symmetry turned off by external request.
 Stoichiometry    C6H10
 Framework group  C1[X(C6H10)]
 Deg. of freedom    42
 Full point group                 C1      NOp   1
 Rotational constants (GHZ):      4.4294023      3.6496976      2.3611387
 Standard basis: 6-31+G(d) (6D, 7F)
   134 basis functions,   232 primitive gaussians,   134 cartesian basis functions
    23 alpha electrons       23 beta electrons
       nuclear repulsion energy       226.4710314069 Hartrees.
 NAtoms=   16 NActive=   16 NUniq=   16 SFac= 1.00D+00 NAtFMM=   60 NAOKFM=F Big=F
 Integral buffers will be    131072 words long.
 Raffenetti 2 integral format.
 Two-electron integral symmetry is turned off.
 One-electron integrals computed using PRISM.
 NBasis=   134 RedAO= T EigKep=  2.89D-05  NBF=   134
 NBsUse=   134 1.00D-06 EigRej= -1.00D+00 NBFU=   134
 Initial guess from the checkpoint file:  "/work/1961630.1.msa_smp.q/Gau-1647.chk"
 B after Tr=     0.000185    0.000000   -0.000277
         Rot=    1.000000    0.000000    0.000076    0.000000 Ang=  -0.01 deg.
 ExpMin= 4.38D-02 ExpMax= 3.05D+03 ExpMxC= 4.57D+02 IAcc=2 IRadAn=         4 AccDes= 0.00D+00
 Harris functional with IExCor= 1009 and IRadAn=       4 diagonalized for initial guess.
 HarFok:  IExCor= 1009 AccDes= 0.00D+00 IRadAn=         4 IDoV= 1 UseB2=F ITyADJ=14
 ICtDFT=  3500011 ScaDFX=  1.000000  1.000000  1.000000  1.000000
 FoFCou: FMM=F IPFlag=           0 FMFlag=      100000 FMFlg1=           0
         NFxFlg=           0 DoJE=T BraDBF=F KetDBF=T FulRan=T
         wScrn=  0.000000 ICntrl=     500 IOpCl=  0 I1Cent=   200000004 NGrid=           0
         NMat0=    1 NMatS0=      1 NMatT0=    0 NMatD0=    1 NMtDS0=    0 NMtDT0=    0
 Symmetry not used in FoFCou.
 Requested convergence on RMS density matrix=1.00D-08 within 128 cycles.
 Requested convergence on MAX density matrix=1.00D-06.
 Requested convergence on             energy=1.00D-06.
 No special actions if energy rises.
 SCF Done:  E(RM062X) =  -234.425939710     A.U. after   11 cycles
            NFock= 11  Conv=0.75D-08     -V/T= 2.0100
 DoSCS=F DFT=T ScalE2(SS,OS)=  1.000000  1.000000
 Range of M.O.s used for correlation:     1   134
 NBasis=   134 NAE=    23 NBE=    23 NFC=     0 NFV=     0
 NROrb=    134 NOA=    23 NOB=    23 NVA=   111 NVB=   111

 **** Warning!!: The largest alpha MO coefficient is  0.62501680D+02

 Symmetrizing basis deriv contribution to polar:
 IMax=3 JMax=2 DiffMx= 0.00D+00
 Calling FoFJK, ICntrl=      2147 FMM=F ISym2X=0 I1Cent= 0 IOpClX= 0 NMat=1 NMatS=1 NMatT=0.
 -------------------------------------------------------------------
 Center     Atomic                   Forces (Hartrees/Bohr)
 Number     Number              X              Y              Z
 -------------------------------------------------------------------
      1        6           0.018611268   -0.005195983    0.004121639
      2        1           0.000640925   -0.000366725    0.000155529
      3        6          -0.000284724   -0.003688476    0.002123804
      4        1          -0.000583048   -0.000005041   -0.000588611
      5        6           0.018603997    0.005202667    0.004123092
      6        1           0.000640524    0.000367127    0.000155438
      7        6          -0.000286052    0.003686390    0.002128517
      8        1          -0.000581842    0.000005289   -0.000588514
      9        6          -0.018219349    0.007933730   -0.006259175
     10        6          -0.018219967   -0.007938743   -0.006264450
     11        1           0.000588333   -0.000453561   -0.000295553
     12        1           0.000587549    0.000452930   -0.000293920
     13        1          -0.001063327   -0.000568721    0.000052229
     14        1          -0.001062707    0.000568469    0.000053938
     15        1           0.000314106   -0.000537215    0.000688138
     16        1           0.000314314    0.000537861    0.000687897
 -------------------------------------------------------------------
 Cartesian Forces:  Max     0.018611268 RMS     0.005940084
 IRC-IRC-IRC-IRC-IRC-IRC-IRC-IRC-IRC-IRC-IRC-IRC-IRC-IRC-IRC-IRC-IRC-IRC
 Pt  3 Step number   1 out of a maximum of  20
 Modified Bulirsch-Stoer Extrapolation Cycles:
    EPS =    0.000010000000000
 Maximum DWI energy   std dev =  0.000019029 at pt    68
 Maximum DWI gradient std dev =  0.049507263 at pt    56
 CORRECTOR INTEGRATION CONVERGENCE:
   Recorrection delta-x convergence threshold:    0.010000
   Delta-x Convergence Met
 Point Number:   3          Path Number:   1
   CHANGE IN THE REACTION COORDINATE =    0.29498
   NET REACTION COORDINATE UP TO THIS POINT =    0.88493
  # OF POINTS ALONG THE PATH =   3
  # OF STEPS =   1

 Calculating another point on the path.
 IRC-IRC-IRC-IRC-IRC-IRC-IRC-IRC-IRC-IRC-IRC-IRC-IRC-IRC-IRC-IRC-IRC-IRC
                          Input orientation:                          
 ---------------------------------------------------------------------
 Center     Atomic      Atomic             Coordinates (Angstroms)
 Number     Number       Type             X           Y           Z
 ---------------------------------------------------------------------
      1          6           0       -0.342410    1.401339   -0.482039
      2          1           0       -0.311801    2.485236   -0.389661
      3          6           0       -1.281209    0.688735    0.300006
      4          1           0       -1.841132    1.220225    1.066750
      5          6           0       -0.341527   -1.401441   -0.482098
      6          1           0       -0.310340   -2.485333   -0.389835
      7          6           0       -1.280808   -0.689452    0.299945
      8          1           0       -1.840444   -1.221330    1.066628
      9          6           0        1.511975    0.716312    0.199822
     10          6           0        1.512324   -0.715554    0.199881
     11          1           0        1.497533    1.226161    1.159096
     12          1           0        1.498108   -1.225316    1.159208
     13          1           0       -0.133127   -1.049596   -1.490412
     14          1           0       -0.133840    1.049696   -1.490385
     15          1           0        2.107498    1.222303   -0.557681
     16          1           0        2.108171   -1.221309   -0.557529
 ---------------------------------------------------------------------
                    Distance matrix (angstroms):
                    1          2          3          4          5
     1  C    0.000000
     2  H    1.088256   0.000000
     3  C    1.414476   2.154717   0.000000
     4  H    2.162804   2.461755   1.088068   0.000000
     5  C    2.802781   3.887890   2.421472   3.394242   0.000000
     6  H    3.887897   4.970568   3.390158   4.265691   1.088258
     7  C    2.421466   3.390158   1.378186   2.132796   1.414486
     8  H    3.394241   4.265695   2.132792   2.441555   2.162810
     9  C    2.091158   2.608207   2.795116   3.499832   2.895750
    10  C    2.895909   3.730958   3.128239   3.967917   2.091005
    11  H    2.471721   2.693995   2.957748   3.339948   3.602771
    12  H    3.602848   4.409417   3.482301   4.140017   2.471673
    13  H    2.658514   3.706563   2.746904   3.822100   1.088082
    14  H    1.088079   1.817701   2.156907   3.079426   2.658543
    15  H    2.457606   2.734271   3.536051   4.269715   3.589913
    16  H    3.590171   4.429776   3.983909   4.918980   2.457470
                    6          7          8          9         10
     6  H    0.000000
     7  C    2.154714   0.000000
     8  H    2.461749   1.088067   0.000000
     9  C    3.730825   3.128232   3.967937   0.000000
    10  C    2.608061   2.795046   3.499730   1.431866   0.000000
    11  H    4.409397   3.482369   4.140152   1.086444   2.165772
    12  H    2.694005   2.957678   3.339838   2.165763   1.086447
    13  H    1.817694   2.156908   3.079428   2.946469   2.382474
    14  H    3.706587   2.746898   3.822090   2.382573   2.946687
    15  H    4.429523   3.983836   4.918940   1.088341   2.164122
    16  H    2.734058   3.536002   4.269596   2.164117   1.088344
                   11         12         13         14         15
    11  H    0.000000
    12  H    2.451477   0.000000
    13  H    3.854609   3.116455   0.000000
    14  H    3.116451   3.854773   2.099292   0.000000
    15  H    1.821921   3.051213   3.324441   2.433788   0.000000
    16  H    3.051195   1.821916   2.433757   3.324800   2.443612
                   16
    16  H    0.000000
 Symmetry turned off by external request.
 Stoichiometry    C6H10
 Framework group  C1[X(C6H10)]
 Deg. of freedom    42
 Full point group                 C1      NOp   1
 Rotational constants (GHZ):      4.4467834      3.6965984      2.3821699
 Standard basis: 6-31+G(d) (6D, 7F)
   134 basis functions,   232 primitive gaussians,   134 cartesian basis functions
    23 alpha electrons       23 beta electrons
       nuclear repulsion energy       226.8996077220 Hartrees.
 NAtoms=   16 NActive=   16 NUniq=   16 SFac= 1.00D+00 NAtFMM=   60 NAOKFM=F Big=F
 Integral buffers will be    131072 words long.
 Raffenetti 2 integral format.
 Two-electron integral symmetry is turned off.
 One-electron integrals computed using PRISM.
 NBasis=   134 RedAO= T EigKep=  2.90D-05  NBF=   134
 NBsUse=   134 1.00D-06 EigRej= -1.00D+00 NBFU=   134
 Initial guess from the checkpoint file:  "/work/1961630.1.msa_smp.q/Gau-1647.chk"
 B after Tr=     0.000119    0.000000   -0.000263
         Rot=    1.000000    0.000000    0.000094    0.000000 Ang=   0.01 deg.
 ExpMin= 4.38D-02 ExpMax= 3.05D+03 ExpMxC= 4.57D+02 IAcc=2 IRadAn=         4 AccDes= 0.00D+00
 Harris functional with IExCor= 1009 and IRadAn=       4 diagonalized for initial guess.
 HarFok:  IExCor= 1009 AccDes= 0.00D+00 IRadAn=         4 IDoV= 1 UseB2=F ITyADJ=14
 ICtDFT=  3500011 ScaDFX=  1.000000  1.000000  1.000000  1.000000
 FoFCou: FMM=F IPFlag=           0 FMFlag=      100000 FMFlg1=           0
         NFxFlg=           0 DoJE=T BraDBF=F KetDBF=T FulRan=T
         wScrn=  0.000000 ICntrl=     500 IOpCl=  0 I1Cent=   200000004 NGrid=           0
         NMat0=    1 NMatS0=      1 NMatT0=    0 NMatD0=    1 NMtDS0=    0 NMtDT0=    0
 Symmetry not used in FoFCou.
 Requested convergence on RMS density matrix=1.00D-08 within 128 cycles.
 Requested convergence on MAX density matrix=1.00D-06.
 Requested convergence on             energy=1.00D-06.
 No special actions if energy rises.
 SCF Done:  E(RM062X) =  -234.430292411     A.U. after   11 cycles
            NFock= 11  Conv=0.70D-08     -V/T= 2.0102
 DoSCS=F DFT=T ScalE2(SS,OS)=  1.000000  1.000000
 Range of M.O.s used for correlation:     1   134
 NBasis=   134 NAE=    23 NBE=    23 NFC=     0 NFV=     0
 NROrb=    134 NOA=    23 NOB=    23 NVA=   111 NVB=   111

 **** Warning!!: The largest alpha MO coefficient is  0.62316142D+02

 Symmetrizing basis deriv contribution to polar:
 IMax=3 JMax=2 DiffMx= 0.00D+00
 Calling FoFJK, ICntrl=      2147 FMM=F ISym2X=0 I1Cent= 0 IOpClX= 0 NMat=1 NMatS=1 NMatT=0.
 -------------------------------------------------------------------
 Center     Atomic                   Forces (Hartrees/Bohr)
 Number     Number              X              Y              Z
 -------------------------------------------------------------------
      1        6           0.026592061   -0.007315578    0.006289203
      2        1           0.000883471   -0.000508640    0.000227093
      3        6          -0.000315338   -0.004868033    0.003032385
      4        1          -0.000934737    0.000035031   -0.000900069
      5        6           0.026585296    0.007327763    0.006289412
      6        1           0.000882920    0.000508870    0.000227024
      7        6          -0.000316851    0.004866163    0.003036137
      8        1          -0.000934309   -0.000035635   -0.000899194
      9        6          -0.026125865    0.011059583   -0.009118447
     10        6          -0.026123396   -0.011070352   -0.009122922
     11        1           0.000790647   -0.000568847   -0.000284668
     12        1           0.000789367    0.000569462   -0.000285455
     13        1          -0.001424650   -0.000762614   -0.000142024
     14        1          -0.001424252    0.000761262   -0.000142954
     15        1           0.000537992   -0.000700459    0.000896981
     16        1           0.000537646    0.000702024    0.000897498
 -------------------------------------------------------------------
 Cartesian Forces:  Max     0.026592061 RMS     0.008488354
 IRC-IRC-IRC-IRC-IRC-IRC-IRC-IRC-IRC-IRC-IRC-IRC-IRC-IRC-IRC-IRC-IRC-IRC
 Pt  4 Step number   1 out of a maximum of  20
 Modified Bulirsch-Stoer Extrapolation Cycles:
    EPS =    0.000010000000000
 Maximum DWI energy   std dev =  0.000010609 at pt    63
 Maximum DWI gradient std dev =  0.029984136 at pt    56
 CORRECTOR INTEGRATION CONVERGENCE:
   Recorrection delta-x convergence threshold:    0.010000
   Delta-x Convergence Met
 Point Number:   4          Path Number:   1
   CHANGE IN THE REACTION COORDINATE =    0.29501
   NET REACTION COORDINATE UP TO THIS POINT =    1.17994
  # OF POINTS ALONG THE PATH =   4
  # OF STEPS =   1

 Calculating another point on the path.
 IRC-IRC-IRC-IRC-IRC-IRC-IRC-IRC-IRC-IRC-IRC-IRC-IRC-IRC-IRC-IRC-IRC-IRC
                          Input orientation:                          
 ---------------------------------------------------------------------
 Center     Atomic      Atomic             Coordinates (Angstroms)
 Number     Number       Type             X           Y           Z
 ---------------------------------------------------------------------
      1          6           0       -0.322532    1.396032   -0.476941
      2          1           0       -0.303777    2.480997   -0.387599
      3          6           0       -1.281417    0.685002    0.302257
      4          1           0       -1.850482    1.221165    1.058946
      5          6           0       -0.321655   -1.396125   -0.477000
      6          1           0       -0.302321   -2.481091   -0.387774
      7          6           0       -1.281017   -0.685720    0.302198
      8          1           0       -1.849790   -1.222276    1.058829
      9          6           0        1.492246    0.724204    0.192946
     10          6           0        1.492597   -0.723455    0.193002
     11          1           0        1.504413    1.222690    1.159130
     12          1           0        1.504976   -1.221840    1.159236
     13          1           0       -0.144647   -1.054925   -1.495995
     14          1           0       -0.145361    1.055017   -1.495970
     15          1           0        2.114354    1.218001   -0.552167
     16          1           0        2.115027   -1.216996   -0.552013
 ---------------------------------------------------------------------
                    Distance matrix (angstroms):
                    1          2          3          4          5
     1  C    0.000000
     2  H    1.088799   0.000000
     3  C    1.425543   2.158072   0.000000
     4  H    2.173514   2.464136   1.088065   0.000000
     5  C    2.792157   3.878194   2.420635   3.398037   0.000000
     6  H    3.878201   4.962088   3.385102   4.265736   1.088801
     7  C    2.420629   3.385102   1.370722   2.129125   1.425553
     8  H    3.398035   4.265740   2.129121   2.443441   2.173520
     9  C    2.047809   2.578575   2.776093   3.488662   2.869645
    10  C    2.869798   3.719216   3.113011   3.963279   2.047656
    11  H    2.458557   2.691701   2.963813   3.356391   3.587427
    12  H    3.587494   4.401737   3.483453   4.151799   2.458500
    13  H    2.660319   3.708990   2.748326   3.823373   1.089082
    14  H    1.089082   1.813009   2.158970   3.076140   2.660353
    15  H    2.444539   2.733057   3.541947   4.279676   3.573995
    16  H    3.574247   4.421854   3.985374   4.925961   2.444409
                    6          7          8          9         10
     6  H    0.000000
     7  C    2.158069   0.000000
     8  H    2.464130   1.088065   0.000000
     9  C    3.719090   3.113007   3.963300   0.000000
    10  C    2.578433   2.776019   3.488557   1.447659   0.000000
    11  H    4.401726   3.483530   4.151939   1.087265   2.172791
    12  H    2.691705   2.963730   3.356268   2.172779   1.087267
    13  H    1.812999   2.158969   3.076141   2.949108   2.375531
    14  H    3.709016   2.748325   3.823367   2.375633   2.949321
    15  H    4.421609   3.985303   4.925921   1.089058   2.170509
    16  H    2.732853   3.541899   4.279558   2.170502   1.089060
                   11         12         13         14         15
    11  H    0.000000
    12  H    2.444530   0.000000
    13  H    3.867378   3.130394   0.000000
    14  H    3.130403   3.867533   2.109942   0.000000
    15  H    1.816752   3.041885   3.340672   2.454311   0.000000
    16  H    3.041862   1.816744   2.454281   3.341025   2.434997
                   16
    16  H    0.000000
 Symmetry turned off by external request.
 Stoichiometry    C6H10
 Framework group  C1[X(C6H10)]
 Deg. of freedom    42
 Full point group                 C1      NOp   1
 Rotational constants (GHZ):      4.4637346      3.7438468      2.4027212
 Standard basis: 6-31+G(d) (6D, 7F)
   134 basis functions,   232 primitive gaussians,   134 cartesian basis functions
    23 alpha electrons       23 beta electrons
       nuclear repulsion energy       227.3368785263 Hartrees.
 NAtoms=   16 NActive=   16 NUniq=   16 SFac= 1.00D+00 NAtFMM=   60 NAOKFM=F Big=F
 Integral buffers will be    131072 words long.
 Raffenetti 2 integral format.
 Two-electron integral symmetry is turned off.
 One-electron integrals computed using PRISM.
 NBasis=   134 RedAO= T EigKep=  2.92D-05  NBF=   134
 NBsUse=   134 1.00D-06 EigRej= -1.00D+00 NBFU=   134
 Initial guess from the checkpoint file:  "/work/1961630.1.msa_smp.q/Gau-1647.chk"
 B after Tr=     0.000040    0.000000   -0.000254
         Rot=    1.000000    0.000000    0.000112    0.000000 Ang=  -0.01 deg.
 ExpMin= 4.38D-02 ExpMax= 3.05D+03 ExpMxC= 4.57D+02 IAcc=2 IRadAn=         4 AccDes= 0.00D+00
 Harris functional with IExCor= 1009 and IRadAn=       4 diagonalized for initial guess.
 HarFok:  IExCor= 1009 AccDes= 0.00D+00 IRadAn=         4 IDoV= 1 UseB2=F ITyADJ=14
 ICtDFT=  3500011 ScaDFX=  1.000000  1.000000  1.000000  1.000000
 FoFCou: FMM=F IPFlag=           0 FMFlag=      100000 FMFlg1=           0
         NFxFlg=           0 DoJE=T BraDBF=F KetDBF=T FulRan=T
         wScrn=  0.000000 ICntrl=     500 IOpCl=  0 I1Cent=   200000004 NGrid=           0
         NMat0=    1 NMatS0=      1 NMatT0=    0 NMatD0=    1 NMtDS0=    0 NMtDT0=    0
 Symmetry not used in FoFCou.
 Requested convergence on RMS density matrix=1.00D-08 within 128 cycles.
 Requested convergence on MAX density matrix=1.00D-06.
 Requested convergence on             energy=1.00D-06.
 No special actions if energy rises.
 SCF Done:  E(RM062X) =  -234.436141932     A.U. after   11 cycles
            NFock= 11  Conv=0.59D-08     -V/T= 2.0104
 DoSCS=F DFT=T ScalE2(SS,OS)=  1.000000  1.000000
 Range of M.O.s used for correlation:     1   134
 NBasis=   134 NAE=    23 NBE=    23 NFC=     0 NFV=     0
 NROrb=    134 NOA=    23 NOB=    23 NVA=   111 NVB=   111

 **** Warning!!: The largest alpha MO coefficient is  0.62081833D+02

 Symmetrizing basis deriv contribution to polar:
 IMax=3 JMax=2 DiffMx= 0.00D+00
 Calling FoFJK, ICntrl=      2147 FMM=F ISym2X=0 I1Cent= 0 IOpClX= 0 NMat=1 NMatS=1 NMatT=0.
 -------------------------------------------------------------------
 Center     Atomic                   Forces (Hartrees/Bohr)
 Number     Number              X              Y              Z
 -------------------------------------------------------------------
      1        6           0.033945262   -0.009282144    0.008424239
      2        1           0.001145077   -0.000641644    0.000332027
      3        6          -0.000124037   -0.005578351    0.003844422
      4        1          -0.001302340    0.000103282   -0.001253770
      5        6           0.033937126    0.009297131    0.008426892
      6        1           0.001144442    0.000642140    0.000331976
      7        6          -0.000125897    0.005576439    0.003847811
      8        1          -0.001301796   -0.000104056   -0.001253043
      9        6          -0.033488939    0.013732189   -0.011848193
     10        6          -0.033484273   -0.013745545   -0.011853585
     11        1           0.000856693   -0.000691992   -0.000305978
     12        1           0.000855374    0.000692190   -0.000305952
     13        1          -0.001688425   -0.000960186   -0.000233159
     14        1          -0.001688435    0.000959137   -0.000232342
     15        1           0.000660085   -0.000848383    0.001039233
     16        1           0.000660083    0.000849793    0.001039422
 -------------------------------------------------------------------
 Cartesian Forces:  Max     0.033945262 RMS     0.010836356
 IRC-IRC-IRC-IRC-IRC-IRC-IRC-IRC-IRC-IRC-IRC-IRC-IRC-IRC-IRC-IRC-IRC-IRC
 Pt  5 Step number   1 out of a maximum of  20
 Modified Bulirsch-Stoer Extrapolation Cycles:
    EPS =    0.000010000000000
 Maximum DWI energy   std dev =  0.000005667 at pt    31
 Maximum DWI gradient std dev =  0.021124735 at pt    28
 CORRECTOR INTEGRATION CONVERGENCE:
   Recorrection delta-x convergence threshold:    0.010000
   Delta-x Convergence Met
 Point Number:   5          Path Number:   1
   CHANGE IN THE REACTION COORDINATE =    0.29501
   NET REACTION COORDINATE UP TO THIS POINT =    1.47495
  # OF POINTS ALONG THE PATH =   5
  # OF STEPS =   1

 Calculating another point on the path.
 IRC-IRC-IRC-IRC-IRC-IRC-IRC-IRC-IRC-IRC-IRC-IRC-IRC-IRC-IRC-IRC-IRC-IRC
                          Input orientation:                          
 ---------------------------------------------------------------------
 Center     Atomic      Atomic             Coordinates (Angstroms)
 Number     Number       Type             X           Y           Z
 ---------------------------------------------------------------------
      1          6           0       -0.302629    1.390721   -0.471706
      2          1           0       -0.295472    2.476650   -0.385078
      3          6           0       -1.281417    0.681708    0.304487
      4          1           0       -1.860414    1.222488    1.050302
      5          6           0       -0.301756   -1.390805   -0.471764
      6          1           0       -0.294020   -2.476742   -0.385254
      7          6           0       -1.281019   -0.682427    0.304430
      8          1           0       -1.859717   -1.223604    1.050188
      9          6           0        1.472454    0.731992    0.185949
     10          6           0        1.472807   -0.731251    0.186002
     11          1           0        1.509885    1.218772    1.158510
     12          1           0        1.510440   -1.217919    1.158613
     13          1           0       -0.155334   -1.060555   -1.500352
     14          1           0       -0.156046    1.060639   -1.500324
     15          1           0        2.119993    1.213341   -0.546758
     16          1           0        2.120668   -1.212326   -0.546604
 ---------------------------------------------------------------------
                    Distance matrix (angstroms):
                    1          2          3          4          5
     1  C    0.000000
     2  H    1.089403   0.000000
     3  C    1.436385   2.160881   0.000000
     4  H    2.184377   2.466228   1.088081   0.000000
     5  C    2.781527   3.868432   2.420250   3.402264   0.000000
     6  H    3.868439   4.953392   3.380310   4.265995   1.089404
     7  C    2.420243   3.380310   1.364135   2.126200   1.436396
     8  H    3.402261   4.265998   2.126197   2.446093   2.184384
     9  C    2.004334   2.548620   2.756880   3.477887   2.843708
    10  C    2.843856   3.707232   3.097780   3.959100   2.004182
    11  H    2.443845   2.687794   2.968024   3.372038   3.570676
    12  H    3.570738   4.392510   3.483186   4.162929   2.443783
    13  H    2.662435   3.711508   2.749725   3.824319   1.090183
    14  H    1.090181   1.807844   2.160415   3.071931   2.662470
    15  H    2.430267   2.730671   3.546385   4.288860   3.556976
    16  H    3.557222   4.412751   3.985712   4.932285   2.430143
                    6          7          8          9         10
     6  H    0.000000
     7  C    2.160879   0.000000
     8  H    2.466222   1.088080   0.000000
     9  C    3.707111   3.097778   3.959119   0.000000
    10  C    2.548480   2.756804   3.477779   1.463242   0.000000
    11  H    4.392505   3.483268   4.163070   1.088224   2.179388
    12  H    2.687794   2.967933   3.371905   2.179374   1.088226
    13  H    1.807834   2.160414   3.071931   2.950682   2.367082
    14  H    3.711533   2.749724   3.824313   2.367179   2.950885
    15  H    4.412512   3.985642   4.932244   1.089892   2.176517
    16  H    2.730476   3.546340   4.288745   2.176508   1.089894
                   11         12         13         14         15
    11  H    0.000000
    12  H    2.436691   0.000000
    13  H    3.877864   3.141602   0.000000
    14  H    3.141613   3.878008   2.121193   0.000000
    15  H    1.811132   3.031645   3.355154   2.472440   0.000000
    16  H    3.031617   1.811125   2.472419   3.355499   2.425667
                   16
    16  H    0.000000
 Symmetry turned off by external request.
 Stoichiometry    C6H10
 Framework group  C1[X(C6H10)]
 Deg. of freedom    42
 Full point group                 C1      NOp   1
 Rotational constants (GHZ):      4.4811626      3.7925628      2.4233050
 Standard basis: 6-31+G(d) (6D, 7F)
   134 basis functions,   232 primitive gaussians,   134 cartesian basis functions
    23 alpha electrons       23 beta electrons
       nuclear repulsion energy       227.8103013294 Hartrees.
 NAtoms=   16 NActive=   16 NUniq=   16 SFac= 1.00D+00 NAtFMM=   60 NAOKFM=F Big=F
 Integral buffers will be    131072 words long.
 Raffenetti 2 integral format.
 Two-electron integral symmetry is turned off.
 One-electron integrals computed using PRISM.
 NBasis=   134 RedAO= T EigKep=  2.93D-05  NBF=   134
 NBsUse=   134 1.00D-06 EigRej= -1.00D+00 NBFU=   134
 Initial guess from the checkpoint file:  "/work/1961630.1.msa_smp.q/Gau-1647.chk"
 B after Tr=    -0.000048    0.000000   -0.000251
         Rot=    1.000000    0.000000    0.000132    0.000000 Ang=  -0.02 deg.
 ExpMin= 4.38D-02 ExpMax= 3.05D+03 ExpMxC= 4.57D+02 IAcc=2 IRadAn=         4 AccDes= 0.00D+00
 Harris functional with IExCor= 1009 and IRadAn=       4 diagonalized for initial guess.
 HarFok:  IExCor= 1009 AccDes= 0.00D+00 IRadAn=         4 IDoV= 1 UseB2=F ITyADJ=14
 ICtDFT=  3500011 ScaDFX=  1.000000  1.000000  1.000000  1.000000
 FoFCou: FMM=F IPFlag=           0 FMFlag=      100000 FMFlg1=           0
         NFxFlg=           0 DoJE=T BraDBF=F KetDBF=T FulRan=T
         wScrn=  0.000000 ICntrl=     500 IOpCl=  0 I1Cent=   200000004 NGrid=           0
         NMat0=    1 NMatS0=      1 NMatT0=    0 NMatD0=    1 NMtDS0=    0 NMtDT0=    0
 Symmetry not used in FoFCou.
 Requested convergence on RMS density matrix=1.00D-08 within 128 cycles.
 Requested convergence on MAX density matrix=1.00D-06.
 Requested convergence on             energy=1.00D-06.
 No special actions if energy rises.
 SCF Done:  E(RM062X) =  -234.443283908     A.U. after   11 cycles
            NFock= 11  Conv=0.46D-08     -V/T= 2.0106
 DoSCS=F DFT=T ScalE2(SS,OS)=  1.000000  1.000000
 Range of M.O.s used for correlation:     1   134
 NBasis=   134 NAE=    23 NBE=    23 NFC=     0 NFV=     0
 NROrb=    134 NOA=    23 NOB=    23 NVA=   111 NVB=   111

 **** Warning!!: The largest alpha MO coefficient is  0.61739474D+02

 Symmetrizing basis deriv contribution to polar:
 IMax=3 JMax=2 DiffMx= 0.00D+00
 Calling FoFJK, ICntrl=      2147 FMM=F ISym2X=0 I1Cent= 0 IOpClX= 0 NMat=1 NMatS=1 NMatT=0.
 -------------------------------------------------------------------
 Center     Atomic                   Forces (Hartrees/Bohr)
 Number     Number              X              Y              Z
 -------------------------------------------------------------------
      1        6           0.039919565   -0.010920003    0.010385311
      2        1           0.001426679   -0.000764644    0.000477172
      3        6           0.000352180   -0.005742208    0.004451247
      4        1          -0.001625384    0.000187166   -0.001630608
      5        6           0.039909872    0.010937793    0.010387343
      6        1           0.001425875    0.000765214    0.000477243
      7        6           0.000350619    0.005740539    0.004454465
      8        1          -0.001624876   -0.000188176   -0.001629849
      9        6          -0.039588425    0.015566001   -0.014197905
     10        6          -0.039580991   -0.015581989   -0.014203120
     11        1           0.000729431   -0.000817451   -0.000395503
     12        1           0.000727677    0.000817769   -0.000396204
     13        1          -0.001803688   -0.001117378   -0.000195446
     14        1          -0.001803879    0.001115869   -0.000195522
     15        1           0.000592850   -0.000973984    0.001105541
     16        1           0.000592497    0.000975483    0.001105835
 -------------------------------------------------------------------
 Cartesian Forces:  Max     0.039919565 RMS     0.012749459
 IRC-IRC-IRC-IRC-IRC-IRC-IRC-IRC-IRC-IRC-IRC-IRC-IRC-IRC-IRC-IRC-IRC-IRC
 Pt  6 Step number   1 out of a maximum of  20
 Modified Bulirsch-Stoer Extrapolation Cycles:
    EPS =    0.000010000000000
 Maximum DWI energy   std dev =  0.000014126 at pt    36
 Maximum DWI gradient std dev =  0.017360996 at pt    38
 CORRECTOR INTEGRATION CONVERGENCE:
   Recorrection delta-x convergence threshold:    0.010000
   Delta-x Convergence Met
 Point Number:   6          Path Number:   1
   CHANGE IN THE REACTION COORDINATE =    0.29501
   NET REACTION COORDINATE UP TO THIS POINT =    1.76996
  # OF POINTS ALONG THE PATH =   6
  # OF STEPS =   1

 Calculating another point on the path.
 IRC-IRC-IRC-IRC-IRC-IRC-IRC-IRC-IRC-IRC-IRC-IRC-IRC-IRC-IRC-IRC-IRC-IRC
                          Input orientation:                          
 ---------------------------------------------------------------------
 Center     Atomic      Atomic             Coordinates (Angstroms)
 Number     Number       Type             X           Y           Z
 ---------------------------------------------------------------------
      1          6           0       -0.282721    1.385366   -0.466259
      2          1           0       -0.286538    2.472131   -0.381932
      3          6           0       -1.281114    0.678875    0.306661
      4          1           0       -1.870830    1.224211    1.040701
      5          6           0       -0.281853   -1.385441   -0.466316
      6          1           0       -0.285092   -2.472219   -0.382106
      7          6           0       -1.280716   -0.679595    0.306606
      8          1           0       -1.870129   -1.225333    1.040590
      9          6           0        1.452560    0.739500    0.178810
     10          6           0        1.452917   -0.738766    0.178861
     11          1           0        1.513413    1.214498    1.157080
     12          1           0        1.513957   -1.213643    1.157179
     13          1           0       -0.164953   -1.066313   -1.503368
     14          1           0       -0.165667    1.066390   -1.503339
     15          1           0        2.123857    1.208472   -0.541702
     16          1           0        2.124530   -1.207449   -0.541547
 ---------------------------------------------------------------------
                    Distance matrix (angstroms):
                    1          2          3          4          5
     1  C    0.000000
     2  H    1.090039   0.000000
     3  C    1.446832   2.163124   0.000000
     4  H    2.195219   2.468029   1.088104   0.000000
     5  C    2.770807   3.858498   2.420210   3.406792   0.000000
     6  H    3.858503   4.944350   3.375774   4.266444   1.090040
     7  C    2.420202   3.375774   1.358470   2.124055   1.446843
     8  H    3.406788   4.266447   2.124052   2.449545   2.195226
     9  C    1.960729   2.518115   2.737333   3.467379   2.817757
    10  C    2.817900   3.694598   3.082364   3.955167   1.960579
    11  H    2.427040   2.681422   2.969761   3.386257   3.552193
    12  H    3.552246   4.381275   3.481009   4.172946   2.426970
    13  H    2.664619   3.713891   2.750945   3.824762   1.091323
    14  H    1.091321   1.802297   2.161132   3.066697   2.664656
    15  H    2.414250   2.726236   3.548805   4.296716   3.538575
    16  H    3.538815   4.402049   3.984480   4.937548   2.414130
                    6          7          8          9         10
     6  H    0.000000
     7  C    2.163121   0.000000
     8  H    2.468022   1.088104   0.000000
     9  C    3.694482   3.082363   3.955186   0.000000
    10  C    2.517979   2.737256   3.467270   1.478267   0.000000
    11  H    4.381277   3.481099   4.173092   1.089191   2.185363
    12  H    2.681415   2.969659   3.386114   2.185348   1.089192
    13  H    1.802285   2.161130   3.066697   2.950768   2.356838
    14  H    3.713917   2.750945   3.824756   2.356935   2.950967
    15  H    4.401817   3.984412   4.937508   1.090740   2.181997
    16  H    2.726049   3.548760   4.296601   2.181987   1.090740
                   11         12         13         14         15
    11  H    0.000000
    12  H    2.428141   0.000000
    13  H    3.885485   3.149437   0.000000
    14  H    3.149457   3.885620   2.132703   0.000000
    15  H    1.805143   3.020732   3.367210   2.487339   0.000000
    16  H    3.020699   1.805134   2.487318   3.367550   2.415921
                   16
    16  H    0.000000
 Symmetry turned off by external request.
 Stoichiometry    C6H10
 Framework group  C1[X(C6H10)]
 Deg. of freedom    42
 Full point group                 C1      NOp   1
 Rotational constants (GHZ):      4.4995821      3.8434399      2.4442201
 Standard basis: 6-31+G(d) (6D, 7F)
[...]
            NFock= 10  Conv=0.46D-08     -V/T= 2.0094
 DoSCS=F DFT=T ScalE2(SS,OS)=  1.000000  1.000000
 Range of M.O.s used for correlation:     1   134
 NBasis=   134 NAE=    23 NBE=    23 NFC=     0 NFV=     0
 NROrb=    134 NOA=    23 NOB=    23 NVA=   111 NVB=   111

 **** Warning!!: The largest alpha MO coefficient is  0.63516498D+02

 Symmetrizing basis deriv contribution to polar:
 IMax=3 JMax=2 DiffMx= 0.00D+00
 Calling FoFJK, ICntrl=      2147 FMM=F ISym2X=0 I1Cent= 0 IOpClX= 0 NMat=1 NMatS=1 NMatT=0.
 -------------------------------------------------------------------
 Center     Atomic                   Forces (Hartrees/Bohr)
 Number     Number              X              Y              Z
 -------------------------------------------------------------------
      1        6          -0.000445373    0.002759693    0.000442152
      2        1           0.000786721   -0.000355545    0.000861905
      3        6           0.004328195   -0.000257850   -0.000510216
      4        1          -0.001667480    0.000772854   -0.000557567
      5        6          -0.000499605   -0.002757712    0.000319439
      6        1           0.000786017    0.000356154    0.000864253
      7        6           0.004350237    0.000270769   -0.000512822
      8        1          -0.001685320   -0.000787626   -0.000548424
      9        6          -0.002531012   -0.002018098    0.000048319
     10        6          -0.002495179    0.002027427    0.000048091
     11        1          -0.001302991   -0.000729371   -0.002201591
     12        1          -0.001316021    0.000731736   -0.002223699
     13        1           0.000623306   -0.000874177    0.002461336
     14        1           0.000586974    0.000857526    0.002329875
     15        1           0.000245768   -0.000148736   -0.000413616
     16        1           0.000235763    0.000152955   -0.000407434
 -------------------------------------------------------------------
 Cartesian Forces:  Max     0.004350237 RMS     0.001541398
 IRC-IRC-IRC-IRC-IRC-IRC-IRC-IRC-IRC-IRC-IRC-IRC-IRC-IRC-IRC-IRC-IRC-IRC
 Error in corrector energy =          -0.0002241232
 Magnitude of corrector gradient =     0.0123874272
 Magnitude of analytic gradient =      0.0106791212
 Magnitude of difference =             0.0111047839
 Angle between gradients (degrees)=   56.9797
 Pt 17 Step number  18 out of a maximum of  20
 Modified Bulirsch-Stoer Extrapolation Cycles:
    EPS =    0.000010000000000
 Maximum DWI energy   std dev =  0.000033284 at pt    -1
 Maximum DWI gradient std dev =  0.237071920 at pt    -1
 CORRECTOR INTEGRATION CONVERGENCE:
   Recorrection delta-x convergence threshold:    0.010000
   Delta-x Convergence NOT Met
 IRC-IRC-IRC-IRC-IRC-IRC-IRC-IRC-IRC-IRC-IRC-IRC-IRC-IRC-IRC-IRC-IRC-IRC
                          Input orientation:                          
 ---------------------------------------------------------------------
 Center     Atomic      Atomic             Coordinates (Angstroms)
 Number     Number       Type             X           Y           Z
 ---------------------------------------------------------------------
      1          6           0       -0.107800    1.343511   -0.398904
      2          1           0       -0.130733    2.429559   -0.280314
      3          6           0       -1.245889    0.668230    0.322358
      4          1           0       -1.997617    1.255025    0.851721
      5          6           0       -0.107072   -1.343553   -0.398989
      6          1           0       -0.129419   -2.429623   -0.280513
      7          6           0       -1.245507   -0.668943    0.322311
      8          1           0       -1.996984   -1.256232    0.851581
      9          6           0        1.253475    0.776350    0.103003
     10          6           0        1.253917   -0.775657    0.103050
     11          1           0        1.424629    1.156079    1.110714
     12          1           0        1.425057   -1.155268    1.110758
     13          1           0       -0.181187   -1.139869   -1.472978
     14          1           0       -0.182248    1.139992   -1.473181
     15          1           0        2.060793    1.163174   -0.529451
     16          1           0        2.061461   -1.162096   -0.529302
 ---------------------------------------------------------------------
                    Distance matrix (angstroms):
                    1          2          3          4          5
     1  C    0.000000
     2  H    1.092744   0.000000
     3  C    1.507140   2.170039   0.000000
     4  H    2.267885   2.479171   1.090711   0.000000
     5  C    2.687064   3.775052   2.421676   3.448340   0.000000
     6  H    3.775053   4.859183   3.347634   4.283544   1.092742
     7  C    2.421673   3.347625   1.337173   2.132510   1.507119
     8  H    3.448390   4.283589   2.132551   2.511257   2.267889
     9  C    1.557771   2.189991   2.511299   3.370357   2.568476
    10  C    2.568483   3.512497   2.895157   3.905977   1.557832
    11  H    2.159263   2.444558   2.826865   3.433459   3.297494
    12  H    3.297367   4.148078   3.328764   4.194200   2.159214
    13  H    2.706695   3.763750   2.761529   3.799890   1.095642
    14  H    1.095916   1.757432   2.139591   2.951942   2.706942
    15  H    2.179990   2.543341   3.450317   4.287979   3.316675
    16  H    3.316740   4.215174   3.874787   4.921973   2.180010
                    6          7          8          9         10
     6  H    0.000000
     7  C    2.170033   0.000000
     8  H    2.479170   1.090758   0.000000
     9  C    3.512512   2.895147   3.906052   0.000000
    10  C    2.190055   2.511291   3.370402   1.552007   0.000000
    11  H    4.148232   3.328951   4.194500   1.090399   2.185436
    12  H    2.444587   2.826672   3.433327   2.185443   1.090353
    13  H    1.757304   2.139535   2.951988   2.865984   2.162415
    14  H    3.763961   2.761622   3.799957   2.162843   2.866493
    15  H    4.215114   3.874761   4.922025   1.096081   2.193210
    16  H    2.543320   3.450287   4.287969   2.193222   1.096052
                   11         12         13         14         15
    11  H    0.000000
    12  H    2.311347   0.000000
    13  H    3.811232   3.042359   0.000000
    14  H    3.042832   3.811612   2.279862   0.000000
    15  H    1.759231   2.910261   3.349735   2.433597   0.000000
    16  H    2.910178   1.759219   2.433206   3.350335   2.325270
                   16
    16  H    0.000000
 Symmetry turned off by external request.
 Stoichiometry    C6H10
 Framework group  C1[X(C6H10)]
 Deg. of freedom    42
 Full point group                 C1      NOp   1
 Rotational constants (GHZ):      4.7424321      4.5263699      2.6836813
 Standard basis: 6-31+G(d) (6D, 7F)
   134 basis functions,   232 primitive gaussians,   134 cartesian basis functions
    23 alpha electrons       23 beta electrons
       nuclear repulsion energy       237.4516948441 Hartrees.
 NAtoms=   16 NActive=   16 NUniq=   16 SFac= 1.00D+00 NAtFMM=   60 NAOKFM=F Big=F
 Integral buffers will be    131072 words long.
 Raffenetti 2 integral format.
 Two-electron integral symmetry is turned off.
 One-electron integrals computed using PRISM.
 NBasis=   134 RedAO= T EigKep=  2.34D-05  NBF=   134
 NBsUse=   134 1.00D-06 EigRej= -1.00D+00 NBFU=   134
 Initial guess from the checkpoint file:  "/work/1961630.1.msa_smp.q/Gau-1647.chk"
 B after Tr=    -0.000408    0.000001   -0.000510
         Rot=    1.000000   -0.000002    0.000717    0.000000 Ang=  -0.08 deg.
 ExpMin= 4.38D-02 ExpMax= 3.05D+03 ExpMxC= 4.57D+02 IAcc=2 IRadAn=         4 AccDes= 0.00D+00
 Harris functional with IExCor= 1009 and IRadAn=       4 diagonalized for initial guess.
 HarFok:  IExCor= 1009 AccDes= 0.00D+00 IRadAn=         4 IDoV= 1 UseB2=F ITyADJ=14
 ICtDFT=  3500011 ScaDFX=  1.000000  1.000000  1.000000  1.000000
 FoFCou: FMM=F IPFlag=           0 FMFlag=      100000 FMFlg1=           0
         NFxFlg=           0 DoJE=T BraDBF=F KetDBF=T FulRan=T
         wScrn=  0.000000 ICntrl=     500 IOpCl=  0 I1Cent=   200000004 NGrid=           0
         NMat0=    1 NMatS0=      1 NMatT0=    0 NMatD0=    1 NMtDS0=    0 NMtDT0=    0
 Symmetry not used in FoFCou.
 Requested convergence on RMS density matrix=1.00D-08 within 128 cycles.
 Requested convergence on MAX density matrix=1.00D-06.
 Requested convergence on             energy=1.00D-06.
 No special actions if energy rises.
 SCF Done:  E(RM062X) =  -234.521948848     A.U. after   10 cycles
            NFock= 10  Conv=0.44D-08     -V/T= 2.0093
 DoSCS=F DFT=T ScalE2(SS,OS)=  1.000000  1.000000
 Range of M.O.s used for correlation:     1   134
 NBasis=   134 NAE=    23 NBE=    23 NFC=     0 NFV=     0
 NROrb=    134 NOA=    23 NOB=    23 NVA=   111 NVB=   111

 **** Warning!!: The largest alpha MO coefficient is  0.63419810D+02

 Symmetrizing basis deriv contribution to polar:
 IMax=3 JMax=2 DiffMx= 0.00D+00
 Calling FoFJK, ICntrl=      2147 FMM=F ISym2X=0 I1Cent= 0 IOpClX= 0 NMat=1 NMatS=1 NMatT=0.
 -------------------------------------------------------------------
 Center     Atomic                   Forces (Hartrees/Bohr)
 Number     Number              X              Y              Z
 -------------------------------------------------------------------
      1        6           0.004796230    0.001478187    0.004884317
      2        1          -0.000136904    0.000705778    0.000555368
      3        6           0.000852907    0.000612287    0.000694965
      4        1           0.001146402   -0.001334541   -0.001941761
      5        6           0.004863113   -0.001483811    0.005039484
      6        1          -0.000135359   -0.000706173    0.000552825
      7        6           0.000819659   -0.000627647    0.000696302
      8        1           0.001169928    0.001352952   -0.001952031
      9        6          -0.006094128   -0.001777415   -0.004657880
     10        6          -0.006143804    0.001767483   -0.004658303
     11        1           0.000951446    0.000524310    0.002593493
     12        1           0.000968833   -0.000527106    0.002622365
     13        1          -0.000964045   -0.000497306   -0.002653299
     14        1          -0.000916366    0.000517885   -0.002482515
     15        1          -0.000595932    0.000082315    0.000357190
     16        1          -0.000581978   -0.000087198    0.000349480
 -------------------------------------------------------------------
 Cartesian Forces:  Max     0.006143804 RMS     0.002397747
 IRC-IRC-IRC-IRC-IRC-IRC-IRC-IRC-IRC-IRC-IRC-IRC-IRC-IRC-IRC-IRC-IRC-IRC
 Error in corrector energy =          -0.0003340511
 Magnitude of corrector gradient =     0.0114053435
 Magnitude of analytic gradient =      0.0166120786
 Magnitude of difference =             0.0134571128
 Angle between gradients (degrees)=   53.5844
 Pt 17 Step number  19 out of a maximum of  20
 Modified Bulirsch-Stoer Extrapolation Cycles:
    EPS =    0.000010000000000
 Maximum DWI energy   std dev =  0.000029437 at pt    -1
 Maximum DWI gradient std dev =  0.297440939 at pt    -1
 CORRECTOR INTEGRATION CONVERGENCE:
   Recorrection delta-x convergence threshold:    0.010000
   Delta-x Convergence NOT Met
 IRC-IRC-IRC-IRC-IRC-IRC-IRC-IRC-IRC-IRC-IRC-IRC-IRC-IRC-IRC-IRC-IRC-IRC
                          Input orientation:                          
 ---------------------------------------------------------------------
 Center     Atomic      Atomic             Coordinates (Angstroms)
 Number     Number       Type             X           Y           Z
 ---------------------------------------------------------------------
      1          6           0       -0.104523    1.343192   -0.398115
      2          1           0       -0.138236    2.431119   -0.283114
      3          6           0       -1.245657    0.667728    0.322599
      4          1           0       -1.985794    1.251312    0.860687
      5          6           0       -0.103718   -1.343204   -0.398172
      6          1           0       -0.136848   -2.431162   -0.283266
      7          6           0       -1.245272   -0.668441    0.322556
      8          1           0       -1.985003   -1.252464    0.860651
      9          6           0        1.250171    0.777930    0.101983
     10          6           0        1.250569   -0.777262    0.102028
     11          1           0        1.437378    1.154107    1.117053
     12          1           0        1.437919   -1.153262    1.117180
     13          1           0       -0.190323   -1.142665   -1.480540
     14          1           0       -0.190777    1.142629   -1.480269
     15          1           0        2.055479    1.165921   -0.529657
     16          1           0        2.056197   -1.164855   -0.529486
 ---------------------------------------------------------------------
                    Distance matrix (angstroms):
                    1          2          3          4          5
     1  C    0.000000
     2  H    1.094508   0.000000
     3  C    1.509260   2.168599   0.000000
     4  H    2.265437   2.472589   1.085316   0.000000
     5  C    2.686396   3.776235   2.422268   3.443610   0.000000
     6  H    3.776239   4.862281   3.346587   4.276428   1.094510
     7  C    2.422259   3.346586   1.336168   2.126830   1.509272
     8  H    3.443563   4.276393   2.126798   2.503776   2.265414
     9  C    1.550746   2.192945   2.507982   3.357259   2.565615
    10  C    2.565685   3.517218   2.892714   3.894190   1.550672
    11  H    2.170011   2.464506   2.840141   3.434134   3.302643
    12  H    3.302655   4.158471   3.339004   4.191607   2.170026
    13  H    2.712654   3.769414   2.764519   3.799499   1.104191
    14  H    1.103958   1.759587   2.142110   2.951944   2.712542
    15  H    2.171252   2.544385   3.445582   4.274603   3.312873
    16  H    3.313045   4.219866   3.871259   4.910003   2.171240
                    6          7          8          9         10
     6  H    0.000000
     7  C    2.168596   0.000000
     8  H    2.472559   1.085279   0.000000
     9  C    3.517173   2.892728   3.894153   0.000000
    10  C    2.192889   2.507927   3.357120   1.555192   0.000000
    11  H    4.158513   3.339089   4.191660   1.098601   2.189831
    12  H    2.464583   2.840069   3.433954   2.189835   1.098640
    13  H    1.759701   2.142187   2.951967   2.875428   2.171223
    14  H    3.769311   2.764437   3.799425   2.170911   2.875260
    15  H    4.219716   3.871189   4.909891   1.094544   2.196102
    16  H    2.544328   3.445592   4.274512   2.196097   1.094566
                   11         12         13         14         15
    11  H    0.000000
    12  H    2.307369   0.000000
    13  H    3.830413   3.065850   0.000000
    14  H    3.065470   3.830210   2.285295   0.000000
    15  H    1.758932   2.910680   3.358180   2.439235   0.000000
    16  H    2.910603   1.758951   2.439641   3.358179   2.330776
                   16
    16  H    0.000000
 Symmetry turned off by external request.
 Stoichiometry    C6H10
 Framework group  C1[X(C6H10)]
 Deg. of freedom    42
 Full point group                 C1      NOp   1
 Rotational constants (GHZ):      4.7370961      4.5342980      2.6872051
 Standard basis: 6-31+G(d) (6D, 7F)
   134 basis functions,   232 primitive gaussians,   134 cartesian basis functions
    23 alpha electrons       23 beta electrons
       nuclear repulsion energy       237.4573154416 Hartrees.
 NAtoms=   16 NActive=   16 NUniq=   16 SFac= 1.00D+00 NAtFMM=   60 NAOKFM=F Big=F
 Integral buffers will be    131072 words long.
 Raffenetti 2 integral format.
 Two-electron integral symmetry is turned off.
 One-electron integrals computed using PRISM.
 NBasis=   134 RedAO= T EigKep=  2.32D-05  NBF=   134
 NBsUse=   134 1.00D-06 EigRej= -1.00D+00 NBFU=   134
 Initial guess from the checkpoint file:  "/work/1961630.1.msa_smp.q/Gau-1647.chk"
 B after Tr=     0.000385   -0.000001    0.000500
         Rot=    1.000000    0.000002   -0.000717    0.000000 Ang=   0.08 deg.
 ExpMin= 4.38D-02 ExpMax= 3.05D+03 ExpMxC= 4.57D+02 IAcc=2 IRadAn=         4 AccDes= 0.00D+00
 Harris functional with IExCor= 1009 and IRadAn=       4 diagonalized for initial guess.
 HarFok:  IExCor= 1009 AccDes= 0.00D+00 IRadAn=         4 IDoV= 1 UseB2=F ITyADJ=14
 ICtDFT=  3500011 ScaDFX=  1.000000  1.000000  1.000000  1.000000
 FoFCou: FMM=F IPFlag=           0 FMFlag=      100000 FMFlg1=           0
         NFxFlg=           0 DoJE=T BraDBF=F KetDBF=T FulRan=T
         wScrn=  0.000000 ICntrl=     500 IOpCl=  0 I1Cent=   200000004 NGrid=           0
         NMat0=    1 NMatS0=      1 NMatT0=    0 NMatD0=    1 NMtDS0=    0 NMtDT0=    0
 Symmetry not used in FoFCou.
 Requested convergence on RMS density matrix=1.00D-08 within 128 cycles.
 Requested convergence on MAX density matrix=1.00D-06.
 Requested convergence on             energy=1.00D-06.
 No special actions if energy rises.
 SCF Done:  E(RM062X) =  -234.521983853     A.U. after   10 cycles
            NFock= 10  Conv=0.44D-08     -V/T= 2.0094
 DoSCS=F DFT=T ScalE2(SS,OS)=  1.000000  1.000000
 Range of M.O.s used for correlation:     1   134
 NBasis=   134 NAE=    23 NBE=    23 NFC=     0 NFV=     0
 NROrb=    134 NOA=    23 NOB=    23 NVA=   111 NVB=   111

 **** Warning!!: The largest alpha MO coefficient is  0.63509896D+02

 Symmetrizing basis deriv contribution to polar:
 IMax=3 JMax=2 DiffMx= 0.00D+00
 Calling FoFJK, ICntrl=      2147 FMM=F ISym2X=0 I1Cent= 0 IOpClX= 0 NMat=1 NMatS=1 NMatT=0.
 -------------------------------------------------------------------
 Center     Atomic                   Forces (Hartrees/Bohr)
 Number     Number              X              Y              Z
 -------------------------------------------------------------------
      1        6          -0.000434455    0.002723899    0.000446198
      2        1           0.000774849   -0.000342751    0.000859098
      3        6           0.004300395   -0.000250504   -0.000503204
      4        1          -0.001649175    0.000756768   -0.000565547
      5        6          -0.000491477   -0.002721786    0.000317537
      6        1           0.000774130    0.000343400    0.000861534
      7        6           0.004323938    0.000264174   -0.000506044
      8        1          -0.001668209   -0.000772409   -0.000555834
      9        6          -0.002712816   -0.002049010    0.000109825
     10        6          -0.002675065    0.002058682    0.000109576
     11        1          -0.001302450   -0.000721112   -0.002228184
     12        1          -0.001316107    0.000723599   -0.002251320
     13        1           0.000643446   -0.000881049    0.002514426
     14        1           0.000605268    0.000863628    0.002376532
     15        1           0.000419106   -0.000102800   -0.000495550
     16        1           0.000408621    0.000107272   -0.000489043
 -------------------------------------------------------------------
 Cartesian Forces:  Max     0.004323938 RMS     0.001555965
 IRC-IRC-IRC-IRC-IRC-IRC-IRC-IRC-IRC-IRC-IRC-IRC-IRC-IRC-IRC-IRC-IRC-IRC
 Error in corrector energy =          -0.0002259921
 Magnitude of corrector gradient =     0.0123523956
 Magnitude of analytic gradient =      0.0107800436
 Magnitude of difference =             0.0110356183
 Angle between gradients (degrees)=   56.4961
 Pt 17 Step number  20 out of a maximum of  20
 Modified Bulirsch-Stoer Extrapolation Cycles:
    EPS =    0.000010000000000
 Maximum DWI energy   std dev =  0.000033035 at pt    -1
 Maximum DWI gradient std dev =  0.238145978 at pt    -1
 CORRECTOR INTEGRATION CONVERGENCE:
   Recorrection delta-x convergence threshold:    0.010000
   Delta-x Convergence NOT Met
 Maximum number of corrector steps exceded.
 Error termination via Lnk1e in /u/local/apps/gaussian/09d01/g09/l123.exe at Thu Mar 23 23:47:25 2017.
 Job cpu time:       0 days  1 hours 14 minutes 49.9 seconds.
 File lengths (MBytes):  RWF=     35 Int=      0 D2E=      0 Chk=      4 Scr=      1
